<?xml version="1.0"?>
<VTKFile type="RectilinearGrid">
<RectilinearGrid WholeExtent="0 100 0 0 0 0">
<Piece Extent="0 100 0 0 0 0">
<Coordinates>
<DataArray type="Float32" format="ascii">
0
1
2
3
4
5
6
7
8
9
10
11
12
13
14
15
16
17
18
19
20
21
22
23
24
25
26
27
28
29
30
31
32
33
34
35
36
37
38
39
40
41
42
43
44
45
46
47
48
49
50
51
52
53
54
55
56
57
58
59
60
61
62
63
64
65
66
67
68
69
70
71
72
73
74
75
76
77
78
79
80
81
82
83
84
85
86
87
88
89
90
91
92
93
94
95
96
97
98
99
100
</DataArray>
<DataArray type="Float32" format="ascii">
0
</DataArray>
<DataArray type="Float32" format="ascii">
0
</DataArray>
</Coordinates>
<CellData>
<DataArray Name="h" type="Float32" format="ascii">
0.244153
0.162544
0.212367
0.175934
0.178979
0.172684
0.168591
0.165702
0.163916
0.163319
0.163401
0.163826
0.164152
0.164196
0.163887
0.163288
0.162497
0.161612
0.160717
0.159865
0.159094
0.158418
0.157836
0.157336
0.156899
0.156502
0.156123
0.15574
0.155338
0.154907
0.154441
0.153938
0.153401
0.152836
0.15225
0.151656
0.151063
0.150483
0.149927
0.149405
0.148923
0.148488
0.148104
0.147772
0.147493
0.147267
0.147093
0.146969
0.146895
0.14687
0.146895
0.146969
0.147092
0.147266
0.147492
0.14777
0.148101
0.148484
0.148917
0.149396
0.149916
0.150467
0.151042
0.151628
0.152214
0.152789
0.153342
0.153866
0.154354
0.154804
0.155217
0.155599
0.155962
0.156321
0.156697
0.157113
0.157593
0.158154
0.158812
0.159564
0.1604
0.161281
0.162155
0.162938
0.163536
0.16385
0.163824
0.16352
0.163137
0.163088
0.163746
0.165562
0.168542
0.172736
0.178852
0.178714
0.20755
0.167241
0.239554
0.197931
</DataArray>
<DataArray Name="hu" type="Float32" format="ascii">
-0.265907
-0.0831436
-0.187581
-0.109262
-0.116278
-0.103751
-0.0967388
-0.0914704
-0.0887466
-0.087968
-0.0886298
-0.089849
-0.0909567
-0.091493
-0.0913226
-0.0904841
-0.0891036
-0.0873088
-0.0851996
-0.0828519
-0.0803159
-0.0776324
-0.0748313
-0.0719419
-0.068989
-0.0659979
-0.0629908
-0.0599881
-0.0570063
-0.0540585
-0.0511536
-0.0482969
-0.0454899
-0.0427312
-0.0400164
-0.037339
-0.0346906
-0.0320623
-0.0294447
-0.0268292
-0.0242084
-0.0215768
-0.0189305
-0.0162676
-0.0135876
-0.0108917
-0.00818191
-0.00546104
-0.0027325
1.20388e-07
0.00273277
0.00546142
0.00818248
0.0108926
0.0135889
0.0162695
0.0189334
0.021581
0.0242144
0.0268375
0.0294561
0.0320777
0.034711
0.0373655
0.0400503
0.0427737
0.0455422
0.04836
0.0512286
0.0541462
0.057107
0.0601021
0.0631179
0.0661378
0.0691412
0.072106
0.0750066
0.0778184
0.0805123
0.0830585
0.0854165
0.087537
0.0893447
0.0907427
0.0916042
0.09181
0.0913204
0.0902804
0.089137
0.0885743
0.0894433
0.0923022
0.0976787
0.105061
0.117082
0.116054
0.177809
0.0931465
0.255123
0.155176
</DataArray>
</CellData>
</Piece>
</RectilinearGrid>
</VTKFile>
