<?xml version="1.0"?>
<VTKFile type="RectilinearGrid">
<RectilinearGrid WholeExtent="0 100 0 0 0 0">
<Piece Extent="0 100 0 0 0 0">
<Coordinates>
<DataArray type="Float32" format="ascii">
0
1
2
3
4
5
6
7
8
9
10
11
12
13
14
15
16
17
18
19
20
21
22
23
24
25
26
27
28
29
30
31
32
33
34
35
36
37
38
39
40
41
42
43
44
45
46
47
48
49
50
51
52
53
54
55
56
57
58
59
60
61
62
63
64
65
66
67
68
69
70
71
72
73
74
75
76
77
78
79
80
81
82
83
84
85
86
87
88
89
90
91
92
93
94
95
96
97
98
99
100
</DataArray>
<DataArray type="Float32" format="ascii">
0
</DataArray>
<DataArray type="Float32" format="ascii">
0
</DataArray>
</Coordinates>
<CellData>
<DataArray Name="h" type="Float32" format="ascii">
0.200747
0.201067
0.201373
0.200842
0.201186
0.199447
0.200762
0.197003
0.200692
0.193491
0.201833
0.188482
0.205696
0.180526
0.21468
0.166376
0.230433
0.142745
0.247332
0.116893
0.248863
0.112254
0.227445
0.135873
0.20221
0.161011
0.189193
0.172332
0.184163
0.175403
0.181358
0.1757
0.179219
0.175252
0.177547
0.174692
0.176299
0.1742
0.1754
0.173806
0.174758
0.173499
0.174301
0.173264
0.173982
0.173096
0.173778
0.172994
0.173677
0.172959
0.173677
0.172994
0.173778
0.173096
0.173982
0.173264
0.174301
0.173499
0.174758
0.173805
0.1754
0.174199
0.176299
0.174691
0.177546
0.17525
0.179216
0.175694
0.18135
0.175389
0.184144
0.172306
0.189152
0.160984
0.202117
0.135892
0.22725
0.112338
0.248564
0.116956
0.246988
0.142707
0.230087
0.166228
0.214334
0.180293
0.205343
0.18819
0.201469
0.193157
0.200319
0.196642
0.200381
0.199069
0.200797
0.200453
0.20098
0.200673
0.200321
0.199452
</DataArray>
<DataArray Name="hu" type="Float32" format="ascii">
-0.160078
-0.16078
-0.161448
-0.160269
-0.161008
-0.157168
-0.160011
-0.151776
-0.159736
-0.144134
-0.162068
-0.133523
-0.170478
-0.117472
-0.190814
-0.0908601
-0.227063
-0.0497537
-0.262729
-0.00703967
-0.255083
0.00633951
-0.196145
-0.0203862
-0.136588
-0.055304
-0.105741
-0.0710288
-0.0915181
-0.0729811
-0.0817461
-0.0695127
-0.0729174
-0.0638624
-0.0643527
-0.0571302
-0.0558874
-0.0497545
-0.0474321
-0.0419491
-0.0389298
-0.0338429
-0.0303598
-0.0255302
-0.0217285
-0.0170838
-0.0130535
-0.00855959
-0.00435376
0
0.00435376
0.00855959
0.0130535
0.0170838
0.0217285
0.0255302
0.0303598
0.033843
0.0389298
0.0419491
0.0474322
0.0497548
0.0558878
0.057131
0.0643538
0.0638647
0.0729202
0.0695189
0.0817524
0.072997
0.0915297
0.0710706
0.105753
0.055421
0.136564
0.020662
0.195999
-0.00592579
0.254799
0.00747284
0.262443
0.0501324
0.226907
0.0911747
0.190801
0.117745
0.170565
0.133773
0.162215
0.144371
0.15992
0.152005
0.160219
0.157397
0.161233
0.160506
0.161691
0.16103
0.160264
0.158358
</DataArray>
</CellData>
</Piece>
</RectilinearGrid>
</VTKFile>
