<?xml version="1.0"?>
<VTKFile type="RectilinearGrid">
<RectilinearGrid WholeExtent="0 100 0 0 0 0">
<Piece Extent="0 100 0 0 0 0">
<Coordinates>
<DataArray type="Float32" format="ascii">
0
1
2
3
4
5
6
7
8
9
10
11
12
13
14
15
16
17
18
19
20
21
22
23
24
25
26
27
28
29
30
31
32
33
34
35
36
37
38
39
40
41
42
43
44
45
46
47
48
49
50
51
52
53
54
55
56
57
58
59
60
61
62
63
64
65
66
67
68
69
70
71
72
73
74
75
76
77
78
79
80
81
82
83
84
85
86
87
88
89
90
91
92
93
94
95
96
97
98
99
100
</DataArray>
<DataArray type="Float32" format="ascii">
0
</DataArray>
<DataArray type="Float32" format="ascii">
0
</DataArray>
</Coordinates>
<CellData>
<DataArray Name="h" type="Float32" format="ascii">
0.173504
0.172129
0.168438
0.165976
0.164937
0.164265
0.164508
0.164724
0.165046
0.164974
0.164639
0.16394
0.163024
0.161912
0.160701
0.159426
0.158143
0.156883
0.155681
0.154559
0.153535
0.152619
0.151814
0.151115
0.150511
0.149988
0.149527
0.14911
0.148717
0.148334
0.147946
0.147544
0.147122
0.146677
0.14621
0.145725
0.145227
0.144724
0.144224
0.143736
0.14327
0.142834
0.142436
0.142081
0.141774
0.14152
0.14132
0.141176
0.141089
0.14106
0.141089
0.141175
0.141318
0.141517
0.14177
0.142075
0.142428
0.142824
0.143257
0.143718
0.1442
0.144693
0.145188
0.145676
0.14615
0.146604
0.147035
0.147442
0.147828
0.148199
0.148564
0.148938
0.149337
0.149779
0.150283
0.150867
0.151547
0.152334
0.153232
0.15424
0.155346
0.156534
0.157781
0.159054
0.160319
0.161525
0.162629
0.163548
0.164244
0.164599
0.164672
0.164402
0.16418
0.164037
0.16477
0.165982
0.168701
0.172314
0.17351
0.188298
</DataArray>
<DataArray Name="hu" type="Float32" format="ascii">
-0.10515
-0.103031
-0.0953315
-0.0917025
-0.0890385
-0.0883717
-0.0885925
-0.0895025
-0.090185
-0.0905007
-0.0901821
-0.0893643
-0.0881013
-0.0865458
-0.0847683
-0.0828474
-0.0808165
-0.0787024
-0.0765133
-0.0742529
-0.0719207
-0.0695158
-0.0670394
-0.0644951
-0.0618904
-0.0592355
-0.0565437
-0.0538294
-0.051108
-0.048394
-0.0457004
-0.0430381
-0.0404153
-0.0378371
-0.0353058
-0.032821
-0.0303798
-0.0279775
-0.0256077
-0.0232632
-0.0209365
-0.0186204
-0.0163087
-0.0139962
-0.0116791
-0.00935552
-0.00702468
-0.00468724
-0.00234476
5.62402e-07
0.002346
0.00468876
0.00702673
0.00935837
0.0116831
0.0140017
0.0163164
0.0186309
0.0209504
0.0232815
0.0256314
0.0280076
0.0304173
0.032867
0.0353613
0.037903
0.0404924
0.043127
0.0458014
0.0485073
0.0512336
0.0539671
0.0566932
0.0593965
0.0620625
0.0646779
0.0672324
0.0697185
0.0721326
0.0744734
0.0767419
0.0789383
0.08106
0.0830975
0.0850267
0.0868119
0.0883811
0.0896568
0.0905033
0.0908477
0.0905913
0.0899494
0.0891386
0.0889488
0.0896842
0.092322
0.0960371
0.103843
0.104117
0.134183
</DataArray>
</CellData>
</Piece>
</RectilinearGrid>
</VTKFile>
