<?xml version="1.0"?>
<VTKFile type="RectilinearGrid">
<RectilinearGrid WholeExtent="0 100 0 0 0 0">
<Piece Extent="0 100 0 0 0 0">
<Coordinates>
<DataArray type="Float32" format="ascii">
0
1
2
3
4
5
6
7
8
9
10
11
12
13
14
15
16
17
18
19
20
21
22
23
24
25
26
27
28
29
30
31
32
33
34
35
36
37
38
39
40
41
42
43
44
45
46
47
48
49
50
51
52
53
54
55
56
57
58
59
60
61
62
63
64
65
66
67
68
69
70
71
72
73
74
75
76
77
78
79
80
81
82
83
84
85
86
87
88
89
90
91
92
93
94
95
96
97
98
99
100
</DataArray>
<DataArray type="Float32" format="ascii">
0
</DataArray>
<DataArray type="Float32" format="ascii">
0
</DataArray>
</Coordinates>
<CellData>
<DataArray Name="h" type="Float32" format="ascii">
0.199312
0.19792
0.198143
0.19615
0.197478
0.194376
0.1987
0.192292
0.205725
0.186619
0.227595
0.162484
0.249982
0.122982
0.210532
0.142573
0.16472
0.160137
0.163265
0.165231
0.167833
0.169358
0.170591
0.171123
0.171376
0.171283
0.171003
0.170557
0.16999
0.169343
0.168631
0.167895
0.167149
0.166424
0.16573
0.165084
0.164492
0.163958
0.163484
0.163066
0.162704
0.162391
0.162126
0.161904
0.161724
0.161579
0.16147
0.161392
0.161347
0.161331
0.161347
0.161392
0.16147
0.161579
0.161724
0.161904
0.162126
0.16239
0.162703
0.163065
0.163483
0.163956
0.164489
0.165079
0.165722
0.166413
0.167133
0.167873
0.1686
0.169302
0.169936
0.170487
0.170915
0.171173
0.171246
0.170967
0.170417
0.169163
0.167638
0.165039
0.163108
0.160072
0.164397
0.143413
0.209127
0.124122
0.24846
0.162619
0.226802
0.186353
0.205244
0.191942
0.198283
0.193999
0.19707
0.195758
0.197735
0.19752
0.198928
0.199096
</DataArray>
<DataArray Name="hu" type="Float32" format="ascii">
-0.15693
-0.153901
-0.154379
-0.150078
-0.152936
-0.146292
-0.155641
-0.141996
-0.17164
-0.131039
-0.225346
-0.0875726
-0.283738
-0.0251653
-0.186327
-0.0574191
-0.0918842
-0.0842171
-0.0863666
-0.0883673
-0.089577
-0.0896931
-0.088572
-0.0866163
-0.08408
-0.0811694
-0.0780851
-0.074869
-0.0716459
-0.0683934
-0.0651783
-0.0619568
-0.0587575
-0.0555384
-0.0523103
-0.0490449
-0.0457483
-0.0424065
-0.0390261
-0.0356028
-0.0321437
-0.0286496
-0.0251272
-0.0215794
-0.0180117
-0.0144275
-0.0108311
-0.00722562
-0.00361436
0
0.00361436
0.00722562
0.0108311
0.0144275
0.0180118
0.0215795
0.0251274
0.0286499
0.0321442
0.0356036
0.0390273
0.0424085
0.0457513
0.0490495
0.0523171
0.0555483
0.0587715
0.0619764
0.0652045
0.0684286
0.071691
0.074927
0.0781562
0.0812578
0.0841846
0.0867438
0.0887209
0.0898787
0.0898042
0.0886757
0.0867575
0.0848479
0.092051
0.0595515
0.18422
0.0275956
0.280938
0.0885913
0.224478
0.131426
0.171612
0.142265
0.155791
0.146536
0.153132
0.150315
0.154592
0.154136
0.157203
0.157575
</DataArray>
</CellData>
</Piece>
</RectilinearGrid>
</VTKFile>
