<?xml version="1.0"?>
<VTKFile type="RectilinearGrid">
<RectilinearGrid WholeExtent="0 100 0 0 0 0">
<Piece Extent="0 100 0 0 0 0">
<Coordinates>
<DataArray type="Float32" format="ascii">
0
1
2
3
4
5
6
7
8
9
10
11
12
13
14
15
16
17
18
19
20
21
22
23
24
25
26
27
28
29
30
31
32
33
34
35
36
37
38
39
40
41
42
43
44
45
46
47
48
49
50
51
52
53
54
55
56
57
58
59
60
61
62
63
64
65
66
67
68
69
70
71
72
73
74
75
76
77
78
79
80
81
82
83
84
85
86
87
88
89
90
91
92
93
94
95
96
97
98
99
100
</DataArray>
<DataArray type="Float32" format="ascii">
0
</DataArray>
<DataArray type="Float32" format="ascii">
0
</DataArray>
</Coordinates>
<CellData>
<DataArray Name="h" type="Float32" format="ascii">
0.113635
0.115382
0.117595
0.120154
0.123072
0.126381
0.130105
0.134262
0.138852
0.143856
0.149228
0.154896
0.160762
0.166716
0.17264
0.178426
0.183985
0.189251
0.194185
0.19877
0.203007
0.20691
0.210499
0.213803
0.216839
0.219651
0.222223
0.224653
0.226812
0.228983
0.230725
0.232765
0.234058
0.236071
0.236907
0.238918
0.23936
0.241308
0.241474
0.243256
0.243259
0.244803
0.244692
0.245995
0.245756
0.246853
0.246445
0.247382
0.246779
0.247563
0.246779
0.247382
0.246445
0.246853
0.245756
0.245995
0.244692
0.244803
0.243259
0.243256
0.241474
0.241308
0.23936
0.238918
0.236907
0.236071
0.234058
0.232765
0.230725
0.228983
0.226812
0.224653
0.222223
0.219651
0.216839
0.213803
0.210499
0.20691
0.203007
0.198769
0.194182
0.189245
0.183972
0.178402
0.1726
0.166654
0.160673
0.154774
0.149072
0.143666
0.138633
0.13402
0.129847
0.126113
0.1228
0.119879
0.117318
0.115084
0.11316
0.111649
</DataArray>
<DataArray Name="hu" type="Float32" format="ascii">
-0.0111956
-0.0132433
-0.0158985
-0.0190497
-0.0227467
-0.0270605
-0.0320601
-0.0378017
-0.0443163
-0.0515974
-0.0595887
-0.0681766
-0.0771904
-0.0864115
-0.095593
-0.104483
-0.112851
-0.120503
-0.127293
-0.133128
-0.137956
-0.141766
-0.144567
-0.146403
-0.147298
-0.147341
-0.146509
-0.145012
-0.142599
-0.139871
-0.135952
-0.132331
-0.12695
-0.122715
-0.115991
-0.111257
-0.10346
-0.0981689
-0.0896727
-0.0837003
-0.0748481
-0.0681432
-0.0591491
-0.0517788
-0.0427473
-0.0348376
-0.0258398
-0.0175176
-0.00864271
0
0.00864271
0.0175176
0.0258398
0.0348376
0.0427473
0.0517788
0.0591491
0.0681432
0.0748481
0.0837003
0.0896727
0.0981689
0.10346
0.111257
0.115991
0.122715
0.12695
0.132331
0.135952
0.139871
0.142599
0.145012
0.146509
0.147341
0.147298
0.146403
0.144567
0.141766
0.137956
0.133129
0.127296
0.120508
0.112861
0.104502
0.0956251
0.0864627
0.0772665
0.068283
0.0597284
0.0517709
0.0445212
0.038033
0.0323119
0.0273264
0.0230215
0.0193291
0.016177
0.0134968
0.0112422
0.00950849
</DataArray>
</CellData>
</Piece>
</RectilinearGrid>
</VTKFile>
