<?xml version="1.0"?>
<VTKFile type="RectilinearGrid">
<RectilinearGrid WholeExtent="0 100 0 0 0 0">
<Piece Extent="0 100 0 0 0 0">
<Coordinates>
<DataArray type="Float32" format="ascii">
0
1
2
3
4
5
6
7
8
9
10
11
12
13
14
15
16
17
18
19
20
21
22
23
24
25
26
27
28
29
30
31
32
33
34
35
36
37
38
39
40
41
42
43
44
45
46
47
48
49
50
51
52
53
54
55
56
57
58
59
60
61
62
63
64
65
66
67
68
69
70
71
72
73
74
75
76
77
78
79
80
81
82
83
84
85
86
87
88
89
90
91
92
93
94
95
96
97
98
99
100
</DataArray>
<DataArray type="Float32" format="ascii">
0
</DataArray>
<DataArray type="Float32" format="ascii">
0
</DataArray>
</Coordinates>
<CellData>
<DataArray Name="h" type="Float32" format="ascii">
0.103178
0.103784
0.10449
0.105308
0.106253
0.107339
0.108583
0.110002
0.111614
0.113437
0.11549
0.117793
0.120364
0.123224
0.12639
0.12988
0.13371
0.137894
0.142444
0.14737
0.152678
0.158369
0.164444
0.170894
0.177711
0.184876
0.192369
0.200162
0.208223
0.216512
0.224985
0.233592
0.242279
0.250987
0.259651
0.268206
0.276583
0.284711
0.292518
0.299935
0.306891
0.31332
0.319158
0.324346
0.328833
0.33257
0.335519
0.337648
0.338935
0.339365
0.338935
0.337648
0.335519
0.33257
0.328833
0.324346
0.319158
0.31332
0.306891
0.299935
0.292518
0.284711
0.276583
0.268206
0.259651
0.250987
0.242279
0.233592
0.224985
0.216512
0.208223
0.200162
0.192369
0.184876
0.177711
0.170894
0.164444
0.158369
0.152678
0.14737
0.142444
0.137894
0.13371
0.12988
0.12639
0.123224
0.120364
0.117793
0.11549
0.113437
0.111614
0.110002
0.108583
0.107339
0.106253
0.105308
0.10449
0.103784
0.103178
0.102659
</DataArray>
<DataArray Name="hu" type="Float32" format="ascii">
0
0
0
0
0
0
0
0
0
0
0
0
0
0
0
0
0
0
0
0
0
0
0
0
0
0
0
0
0
0
0
0
0
0
0
0
0
0
0
0
0
0
0
0
0
0
0
0
0
0
0
0
0
0
0
0
0
0
0
0
0
0
0
0
0
0
0
0
0
0
0
0
0
0
0
0
0
0
0
0
0
0
0
0
0
0
0
0
0
0
0
0
0
0
0
0
0
0
0
0
</DataArray>
</CellData>
</Piece>
</RectilinearGrid>
</VTKFile>
