<?xml version="1.0"?>
<VTKFile type="RectilinearGrid">
<RectilinearGrid WholeExtent="0 100 0 0 0 0">
<Piece Extent="0 100 0 0 0 0">
<Coordinates>
<DataArray type="Float32" format="ascii">
0
1
2
3
4
5
6
7
8
9
10
11
12
13
14
15
16
17
18
19
20
21
22
23
24
25
26
27
28
29
30
31
32
33
34
35
36
37
38
39
40
41
42
43
44
45
46
47
48
49
50
51
52
53
54
55
56
57
58
59
60
61
62
63
64
65
66
67
68
69
70
71
72
73
74
75
76
77
78
79
80
81
82
83
84
85
86
87
88
89
90
91
92
93
94
95
96
97
98
99
100
</DataArray>
<DataArray type="Float32" format="ascii">
0
</DataArray>
<DataArray type="Float32" format="ascii">
0
</DataArray>
</Coordinates>
<CellData>
<DataArray Name="h" type="Float32" format="ascii">
0.160331
0.162562
0.153782
0.166319
0.14439
0.170937
0.136379
0.171648
0.134492
0.16632
0.137534
0.158121
0.140874
0.15093
0.142169
0.145856
0.141581
0.142264
0.139957
0.139437
0.137918
0.137003
0.135813
0.134838
0.133836
0.132938
0.132095
0.131333
0.130647
0.130038
0.129505
0.129041
0.128643
0.1283
0.128008
0.127756
0.127539
0.127348
0.127179
0.127027
0.126887
0.126759
0.126642
0.126535
0.12644
0.126358
0.126291
0.12624
0.126208
0.126194
0.1262
0.126225
0.126268
0.126327
0.126401
0.126487
0.126584
0.126692
0.126809
0.126937
0.127077
0.127234
0.127411
0.127615
0.127852
0.12813
0.128458
0.128841
0.129289
0.129806
0.1304
0.131068
0.131817
0.132641
0.133532
0.134506
0.135495
0.136624
0.137613
0.138973
0.13974
0.141613
0.141614
0.144833
0.142673
0.149505
0.141605
0.157537
0.13629
0.170771
0.125887
0.186133
0.116836
0.192658
0.122348
0.184383
0.140658
0.17124
0.156486
0.163538
</DataArray>
<DataArray Name="hu" type="Float32" format="ascii">
-0.0822261
-0.0798327
-0.0816347
-0.0719141
-0.0833324
-0.0624641
-0.0837351
-0.0553857
-0.0796721
-0.0533507
-0.0723732
-0.0542251
-0.0648664
-0.0545722
-0.0587786
-0.0533494
-0.0541369
-0.0510742
-0.05039
-0.048327
-0.0470882
-0.0454015
-0.0439679
-0.0423948
-0.040878
-0.0393083
-0.0377283
-0.0361134
-0.0344676
-0.0327897
-0.0310793
-0.0293418
-0.02758
-0.0258018
-0.0240133
-0.0222232
-0.0204393
-0.0186699
-0.0169224
-0.0152037
-0.0135192
-0.011873
-0.0102675
-0.00870314
-0.00717866
-0.00569073
-0.00423451
-0.00280327
-0.00138934
1.6182e-05
0.00142233
0.0028383
0.00427271
0.00573343
0.00722681
0.00875788
0.0103296
0.0119433
0.0135982
0.015292
0.0170202
0.0187776
0.0205571
0.0223514
0.0241519
0.0259511
0.0277398
0.0295124
0.0312604
0.0329817
0.0346695
0.0363265
0.0379495
0.0395424
0.0411145
0.0426516
0.0442105
0.0456896
0.0473144
0.0486772
0.0505417
0.051568
0.0540892
0.0541339
0.0583685
0.0556787
0.0642976
0.0546008
0.0731404
0.0492743
0.0850542
0.0429038
0.0964998
0.0456649
0.0996642
0.0598747
0.0924811
0.0749711
0.0856593
0.0840316
</DataArray>
</CellData>
</Piece>
</RectilinearGrid>
</VTKFile>
