<?xml version="1.0"?>
<VTKFile type="RectilinearGrid">
<RectilinearGrid WholeExtent="0 100 0 0 0 0">
<Piece Extent="0 100 0 0 0 0">
<Coordinates>
<DataArray type="Float32" format="ascii">
0
10
20
30
40
50
60
70
80
90
100
110
120
130
140
150
160
170
180
190
200
210
220
230
240
250
260
270
280
290
300
310
320
330
340
350
360
370
380
390
400
410
420
430
440
450
460
470
480
490
500
510
520
530
540
550
560
570
580
590
600
610
620
630
640
650
660
670
680
690
700
710
720
730
740
750
760
770
780
790
800
810
820
830
840
850
860
870
880
890
900
910
920
930
940
950
960
970
980
990
1000
</DataArray>
<DataArray type="Float32" format="ascii">
0
</DataArray>
<DataArray type="Float32" format="ascii">
0
</DataArray>
</Coordinates>
<CellData>
<DataArray Name="h" type="Float32" format="ascii">
15
15
15
15
15
15
15
15
15
15
15
15
15
15
15
15
15
15
15
15
15
15
15
15
15
15
15
15
15
15
15
15
15
15
15
15
15
15
15
15
15
15
15
15
15
14.8438
14.4531
13.8672
13.1836
12.5
11.8848
11.3721
10.9692
10.6671
10.4489
10.2962
10.192
10.1226
10.0772
10.048
10.0295
10.018
10.0109
10.0065
10.0039
10.0023
10.0013
10.0008
10.0004
10.0003
10.0001
10.0001
10
10
10
10
10
10
10
10
10
10
10
10
10
10
10
10
10
10
10
10
10
10
10
10
10
10
10
10
</DataArray>
<DataArray Name="hu" type="Float32" format="ascii">
0
0
0
0
0
0
0
0
0
0
0
0
0
0
0
0
0
0
0
0
0
0
0
0
0
0
0
0
0
0
0
0
0
0
0
0
0
0
0
0
0
0
0
0
0
-8.05197e-15
-2.76887e-14
-4.82984e-14
-6.11923e-14
-6.42247e-14
-5.95539e-14
-5.06013e-14
-4.02955e-14
-3.05235e-14
-2.22189e-14
-1.56563e-14
-1.07366e-14
-7.1951e-15
-4.72699e-15
-3.05223e-15
-1.94104e-15
-1.21781e-15
-7.54877e-16
-4.62864e-16
-2.81034e-16
-1.69118e-16
-1.00947e-16
-5.98101e-17
-3.51968e-17
-2.05787e-17
-1.19545e-17
-6.90746e-18
-3.97485e-18
-2.27676e-18
-1.2984e-18
-7.34521e-19
-4.1239e-19
-2.33475e-19
-1.3219e-19
-7.18848e-20
-3.90186e-20
-2.11415e-20
-1.14357e-20
-6.17564e-21
-3.32985e-21
-1.79274e-21
-9.63793e-22
-5.17429e-22
-2.77422e-22
-1.48551e-22
-7.94462e-23
-4.24381e-23
-2.26434e-23
-1.20683e-23
-6.42521e-24
-3.41728e-24
-1.81569e-24
-9.63859e-25
-5.1243e-25
-2.86716e-25
</DataArray>
</CellData>
</Piece>
</RectilinearGrid>
</VTKFile>
