<?xml version="1.0"?>
<VTKFile type="RectilinearGrid">
<RectilinearGrid WholeExtent="0 100 0 0 0 0">
<Piece Extent="0 100 0 0 0 0">
<Coordinates>
<DataArray type="Float32" format="ascii">
0
1
2
3
4
5
6
7
8
9
10
11
12
13
14
15
16
17
18
19
20
21
22
23
24
25
26
27
28
29
30
31
32
33
34
35
36
37
38
39
40
41
42
43
44
45
46
47
48
49
50
51
52
53
54
55
56
57
58
59
60
61
62
63
64
65
66
67
68
69
70
71
72
73
74
75
76
77
78
79
80
81
82
83
84
85
86
87
88
89
90
91
92
93
94
95
96
97
98
99
100
</DataArray>
<DataArray type="Float32" format="ascii">
0
</DataArray>
<DataArray type="Float32" format="ascii">
0
</DataArray>
</Coordinates>
<CellData>
<DataArray Name="h" type="Float32" format="ascii">
0.103967
0.104366
0.104952
0.105727
0.106691
0.107829
0.109137
0.110626
0.112314
0.114221
0.116366
0.118768
0.121447
0.124422
0.127711
0.131331
0.135298
0.139624
0.144318
0.149389
0.154839
0.160666
0.166864
0.173422
0.180323
0.187543
0.195054
0.202822
0.210808
0.218966
0.227247
0.235597
0.24396
0.252275
0.260482
0.268518
0.276321
0.283829
0.290984
0.297728
0.304005
0.309767
0.314966
0.31956
0.323512
0.326791
0.329369
0.331226
0.332346
0.33272
0.332346
0.331226
0.329369
0.326791
0.323512
0.31956
0.314966
0.309767
0.304005
0.297728
0.290984
0.283829
0.276321
0.268518
0.260482
0.252275
0.24396
0.235597
0.227247
0.218966
0.210808
0.202822
0.195054
0.187543
0.180323
0.173422
0.166864
0.160666
0.154839
0.149389
0.144318
0.139624
0.135298
0.131331
0.127711
0.124422
0.121447
0.118768
0.116366
0.114221
0.112314
0.110626
0.109137
0.107829
0.106685
0.105693
0.104856
0.104185
0.103679
0.103334
</DataArray>
<DataArray Name="hu" type="Float32" format="ascii">
-0.000687185
-0.00102555
-0.0013964
-0.00173767
-0.00205751
-0.00239042
-0.00276254
-0.00318434
-0.00366129
-0.00419931
-0.00480469
-0.00548408
-0.00624437
-0.00709263
-0.00803581
-0.00908063
-0.0102332
-0.0114985
-0.0128804
-0.0143804
-0.0159978
-0.0177286
-0.0195649
-0.0214949
-0.0235016
-0.0255627
-0.0276508
-0.0297326
-0.0317699
-0.0337197
-0.0355348
-0.0371655
-0.0385604
-0.0396681
-0.040439
-0.0408269
-0.0407909
-0.0402972
-0.0393199
-0.0378437
-0.0358632
-0.0333849
-0.0304266
-0.0270179
-0.0231993
-0.0190215
-0.0145421
-0.00983044
-0.00495688
0
0.00495688
0.00983044
0.0145421
0.0190215
0.0231993
0.0270179
0.0304266
0.0333849
0.0358632
0.0378437
0.0393199
0.0402972
0.0407909
0.0408269
0.040439
0.0396681
0.0385604
0.0371655
0.0355348
0.0337197
0.0317699
0.0297326
0.0276508
0.0255627
0.0235016
0.0214949
0.0195649
0.0177286
0.0159978
0.0143804
0.0128804
0.0114985
0.0102332
0.00908063
0.00803581
0.00709263
0.00624437
0.00548408
0.00480469
0.00419931
0.00366129
0.00318434
0.00276254
0.00239042
0.00206293
0.00177089
0.00149189
0.00119626
0.000876789
0.000586287
</DataArray>
</CellData>
</Piece>
</RectilinearGrid>
</VTKFile>
