<?xml version="1.0"?>
<VTKFile type="RectilinearGrid">
<RectilinearGrid WholeExtent="0 100 0 0 0 0">
<Piece Extent="0 100 0 0 0 0">
<Coordinates>
<DataArray type="Float32" format="ascii">
0
1
2
3
4
5
6
7
8
9
10
11
12
13
14
15
16
17
18
19
20
21
22
23
24
25
26
27
28
29
30
31
32
33
34
35
36
37
38
39
40
41
42
43
44
45
46
47
48
49
50
51
52
53
54
55
56
57
58
59
60
61
62
63
64
65
66
67
68
69
70
71
72
73
74
75
76
77
78
79
80
81
82
83
84
85
86
87
88
89
90
91
92
93
94
95
96
97
98
99
100
</DataArray>
<DataArray type="Float32" format="ascii">
0
</DataArray>
<DataArray type="Float32" format="ascii">
0
</DataArray>
</Coordinates>
<CellData>
<DataArray Name="h" type="Float32" format="ascii">
0.158333
0.155547
0.158643
0.149941
0.160515
0.141061
0.162606
0.13361
0.162229
0.133798
0.15789
0.137595
0.151296
0.139514
0.145391
0.139345
0.141152
0.13806
0.138056
0.136229
0.135515
0.134193
0.133256
0.132159
0.13121
0.130257
0.129391
0.128576
0.127837
0.127168
0.126575
0.126055
0.125605
0.125223
0.124902
0.124637
0.124421
0.124247
0.124109
0.124001
0.123917
0.123852
0.123803
0.123765
0.123737
0.123715
0.123699
0.123687
0.123678
0.123672
0.123668
0.123667
0.123669
0.123675
0.123686
0.123704
0.12373
0.123768
0.123821
0.123892
0.123988
0.124113
0.124273
0.124476
0.124727
0.125033
0.1254
0.125834
0.126338
0.126917
0.127569
0.128295
0.129093
0.12995
0.130881
0.131833
0.13289
0.133868
0.135088
0.135948
0.137511
0.137914
0.1404
0.139464
0.144647
0.140088
0.152573
0.137293
0.154466
0.134198
0.139436
0.341181
-0.424171
0.607873
-1.3742
1.99616
-8.19045
8.8569
-0.570551
0.159425
</DataArray>
<DataArray Name="hu" type="Float32" format="ascii">
-0.0773425
-0.0757659
-0.07321
-0.076149
-0.0671184
-0.0773863
-0.0578486
-0.0741521
-0.0488964
-0.0666702
-0.0463319
-0.0601543
-0.0478975
-0.055287
-0.0485659
-0.0511236
-0.0473516
-0.0474679
-0.0451146
-0.0442507
-0.0425172
-0.0413083
-0.039819
-0.0384953
-0.0370839
-0.0357103
-0.0343
-0.0328816
-0.0314348
-0.0299634
-0.0284638
-0.0269368
-0.0253849
-0.0238111
-0.0222209
-0.02062
-0.0190152
-0.0174135
-0.015822
-0.014247
-0.0126945
-0.0111691
-0.00967392
-0.0082107
-0.00677921
-0.00537755
-0.00400203
-0.00264745
-0.00130735
2.56325e-05
0.00135933
0.00270143
0.00405929
0.00543926
0.00684646
0.0082844
0.00975494
0.011258
0.012792
0.0143535
0.0159379
0.0175391
0.0191509
0.0207657
0.0223771
0.0239777
0.0255621
0.0271245
0.0286622
0.0301719
0.0316541
0.0331096
0.0345395
0.0359546
0.0373437
0.0387493
0.0401038
0.041557
0.0428465
0.0444605
0.0455398
0.0475743
0.0479648
0.051059
0.0492124
0.0547476
0.0462086
0.0577028
0.0368192
0.0423334
-0.0479737
-0.317126
0.284283
-1.44948
0.90162
-1.16867
3.53485
-1.92968
0.850527
0.08125
</DataArray>
</CellData>
</Piece>
</RectilinearGrid>
</VTKFile>
