<?xml version="1.0"?>
<VTKFile type="RectilinearGrid">
<RectilinearGrid WholeExtent="0 100 0 0 0 0">
<Piece Extent="0 100 0 0 0 0">
<Coordinates>
<DataArray type="Float32" format="ascii">
0
1
2
3
4
5
6
7
8
9
10
11
12
13
14
15
16
17
18
19
20
21
22
23
24
25
26
27
28
29
30
31
32
33
34
35
36
37
38
39
40
41
42
43
44
45
46
47
48
49
50
51
52
53
54
55
56
57
58
59
60
61
62
63
64
65
66
67
68
69
70
71
72
73
74
75
76
77
78
79
80
81
82
83
84
85
86
87
88
89
90
91
92
93
94
95
96
97
98
99
100
</DataArray>
<DataArray type="Float32" format="ascii">
0
</DataArray>
<DataArray type="Float32" format="ascii">
0
</DataArray>
</Coordinates>
<CellData>
<DataArray Name="h" type="Float32" format="ascii">
0.103645
0.104042
0.104661
0.105474
0.106441
0.107552
0.108824
0.110273
0.111917
0.113776
0.115868
0.118212
0.120829
0.123737
0.126955
0.130499
0.134386
0.138628
0.143239
0.148225
0.153592
0.15934
0.165467
0.171963
0.178816
0.186005
0.193508
0.201293
0.209325
0.217562
0.225957
0.234459
0.243012
0.251555
0.260027
0.268363
0.276495
0.284357
0.291884
0.299009
0.30567
0.311807
0.317365
0.322292
0.326543
0.330078
0.332864
0.334873
0.336087
0.336493
0.336087
0.334873
0.332864
0.330078
0.326543
0.322292
0.317365
0.311807
0.30567
0.299009
0.291884
0.284357
0.276495
0.268363
0.260027
0.251555
0.243012
0.234459
0.225957
0.217562
0.209325
0.201293
0.193508
0.186005
0.178816
0.171963
0.165467
0.15934
0.153592
0.148225
0.143239
0.138628
0.134386
0.130499
0.126955
0.123737
0.120829
0.118212
0.115868
0.113776
0.111917
0.110273
0.108824
0.107552
0.106441
0.105474
0.104636
0.103933
0.1034
0.103058
</DataArray>
<DataArray Name="hu" type="Float32" format="ascii">
-0.00037974
-0.000642001
-0.000870222
-0.00104345
-0.00121272
-0.00140549
-0.00162448
-0.00187264
-0.00215317
-0.00246952
-0.00282537
-0.00322463
-0.00367137
-0.00416977
-0.00472401
-0.00533815
-0.00601598
-0.00676077
-0.00757508
-0.00846042
-0.00941694
-0.0104431
-0.0115353
-0.0126875
-0.0138908
-0.0151334
-0.0164001
-0.0176724
-0.0189284
-0.020143
-0.0212882
-0.0223337
-0.0232477
-0.0239974
-0.0245503
-0.0248754
-0.0249441
-0.0247316
-0.0242179
-0.0233889
-0.0222376
-0.0207643
-0.0189775
-0.0168935
-0.0145369
-0.01194
-0.00914154
-0.00618612
-0.00312138
0
0.00312138
0.00618612
0.00914154
0.01194
0.0145369
0.0168935
0.0189775
0.0207643
0.0222376
0.0233889
0.0242179
0.0247316
0.0249441
0.0248754
0.0245503
0.0239974
0.0232477
0.0223337
0.0212882
0.020143
0.0189284
0.0176724
0.0164001
0.0151334
0.0138908
0.0126875
0.0115353
0.0104431
0.00941694
0.00846042
0.00757508
0.00676077
0.00601598
0.00533815
0.00472401
0.00416977
0.00367137
0.00322463
0.00282537
0.00246952
0.00215317
0.00187264
0.00162448
0.00140549
0.00121272
0.00104345
0.00089522
0.000744681
0.000548281
0.000323611
</DataArray>
</CellData>
</Piece>
</RectilinearGrid>
</VTKFile>
