<?xml version="1.0"?>
<VTKFile type="RectilinearGrid">
<RectilinearGrid WholeExtent="0 100 0 0 0 0">
<Piece Extent="0 100 0 0 0 0">
<Coordinates>
<DataArray type="Float32" format="ascii">
0
1
2
3
4
5
6
7
8
9
10
11
12
13
14
15
16
17
18
19
20
21
22
23
24
25
26
27
28
29
30
31
32
33
34
35
36
37
38
39
40
41
42
43
44
45
46
47
48
49
50
51
52
53
54
55
56
57
58
59
60
61
62
63
64
65
66
67
68
69
70
71
72
73
74
75
76
77
78
79
80
81
82
83
84
85
86
87
88
89
90
91
92
93
94
95
96
97
98
99
100
</DataArray>
<DataArray type="Float32" format="ascii">
0
</DataArray>
<DataArray type="Float32" format="ascii">
0
</DataArray>
</Coordinates>
<CellData>
<DataArray Name="h" type="Float32" format="ascii">
0.107533
0.10838
0.109465
0.110726
0.112175
0.113841
0.115758
0.117959
0.120477
0.123337
0.126555
0.130143
0.134107
0.138446
0.143156
0.148221
0.153622
0.159326
0.165293
0.171474
0.177815
0.184255
0.190737
0.197203
0.203599
0.209878
0.215999
0.221927
0.227636
0.233105
0.23832
0.243268
0.247945
0.252343
0.256468
0.260304
0.263882
0.267151
0.270194
0.272899
0.275416
0.277572
0.279563
0.28119
0.282651
0.283763
0.284698
0.285301
0.285717
0.285811
0.285717
0.285301
0.284698
0.283763
0.282651
0.28119
0.279563
0.277572
0.275416
0.272899
0.270194
0.267151
0.263882
0.260304
0.256468
0.252343
0.247945
0.243268
0.23832
0.233105
0.227636
0.221927
0.215999
0.209878
0.203599
0.197203
0.190737
0.184255
0.177815
0.171474
0.165293
0.159326
0.153622
0.148221
0.143155
0.138445
0.134102
0.13013
0.126527
0.123285
0.120393
0.117835
0.115592
0.113638
0.111943
0.110474
0.1092
0.108095
0.107147
0.10641
</DataArray>
<DataArray Name="hu" type="Float32" format="ascii">
-0.0043893
-0.00529871
-0.0064736
-0.00784224
-0.00940982
-0.0111913
-0.0132033
-0.0154651
-0.0180008
-0.0208409
-0.0240203
-0.027575
-0.0315364
-0.0359268
-0.0407549
-0.0460124
-0.0516714
-0.0576822
-0.063973
-0.0704506
-0.0770028
-0.0835034
-0.089818
-0.0958107
-0.101351
-0.106317
-0.110606
-0.11413
-0.116823
-0.118634
-0.119539
-0.119519
-0.118583
-0.116736
-0.114019
-0.110434
-0.10608
-0.100902
-0.0951018
-0.0885236
-0.0814856
-0.0737417
-0.0656728
-0.0570228
-0.0481373
-0.03884
-0.0293725
-0.0196709
-0.00987326
0
0.00987326
0.0196709
0.0293725
0.03884
0.0481373
0.0570228
0.0656728
0.0737417
0.0814856
0.0885236
0.0951018
0.100902
0.10608
0.110434
0.114019
0.116736
0.118583
0.119519
0.119539
0.118634
0.116823
0.11413
0.110606
0.106317
0.101351
0.0958107
0.089818
0.0835034
0.0770028
0.0704506
0.063973
0.0576822
0.0516714
0.0460125
0.0407554
0.0359284
0.0315413
0.0275874
0.0240469
0.0208905
0.0180825
0.0155857
0.0133651
0.0113909
0.00963978
0.00809318
0.00673533
0.00555221
0.00453859
0.00375593
</DataArray>
</CellData>
</Piece>
</RectilinearGrid>
</VTKFile>
