<?xml version="1.0"?>
<VTKFile type="RectilinearGrid">
<RectilinearGrid WholeExtent="0 100 0 0 0 0">
<Piece Extent="0 100 0 0 0 0">
<Coordinates>
<DataArray type="Float32" format="ascii">
0
1
2
3
4
5
6
7
8
9
10
11
12
13
14
15
16
17
18
19
20
21
22
23
24
25
26
27
28
29
30
31
32
33
34
35
36
37
38
39
40
41
42
43
44
45
46
47
48
49
50
51
52
53
54
55
56
57
58
59
60
61
62
63
64
65
66
67
68
69
70
71
72
73
74
75
76
77
78
79
80
81
82
83
84
85
86
87
88
89
90
91
92
93
94
95
96
97
98
99
100
</DataArray>
<DataArray type="Float32" format="ascii">
0
</DataArray>
<DataArray type="Float32" format="ascii">
0
</DataArray>
</Coordinates>
<CellData>
<DataArray Name="h" type="Float32" format="ascii">
0.164498
0.162566
0.164659
0.158128
0.165108
0.153739
0.16414
0.151306
0.160887
0.15063
0.156518
0.150099
0.152474
0.148821
0.149117
0.146887
0.146221
0.14462
0.143589
0.142266
0.141154
0.139991
0.138934
0.137917
0.136984
0.136127
0.135352
0.134662
0.13405
0.133516
0.133049
0.132644
0.132288
0.131974
0.13169
0.13143
0.131186
0.130952
0.130724
0.1305
0.13028
0.130066
0.12986
0.129667
0.129492
0.129338
0.129212
0.129118
0.129059
0.129038
0.129054
0.129108
0.129197
0.129318
0.129465
0.129633
0.129818
0.130015
0.13022
0.130429
0.130642
0.130858
0.131079
0.13131
0.131556
0.131825
0.132125
0.132465
0.132855
0.133305
0.133823
0.134418
0.135092
0.135851
0.136691
0.137611
0.138609
0.139662
0.140796
0.141923
0.143189
0.144291
0.145747
0.14663
0.148501
0.148746
0.151658
0.150249
0.155776
0.150459
0.16145
0.149244
0.167631
0.14886
0.170842
0.152672
0.169419
0.159616
0.166436
0.165137
</DataArray>
<DataArray Name="hu" type="Float32" format="ascii">
-0.0880154
-0.0874422
-0.0837336
-0.0855482
-0.0782078
-0.0832981
-0.0732077
-0.0795367
-0.0698161
-0.0744902
-0.0673705
-0.0693403
-0.0647967
-0.0647824
-0.0618191
-0.0607947
-0.0586073
-0.0571655
-0.0553149
-0.053722
-0.0519956
-0.0503408
-0.0486358
-0.0469302
-0.0451899
-0.0434204
-0.0416145
-0.0397703
-0.0378898
-0.0359741
-0.0340293
-0.0320608
-0.030077
-0.0280862
-0.0260976
-0.0241201
-0.0221621
-0.0202313
-0.0183341
-0.0164755
-0.014659
-0.0128864
-0.0111577
-0.00947148
-0.00782472
-0.00621299
-0.00463071
-0.0030713
-0.00152734
9.01714e-06
0.00154601
0.00309157
0.00465375
0.00623982
0.00785642
0.00950901
0.011202
0.0129383
0.0147193
0.0165448
0.0184129
0.02032
0.0222611
0.0242296
0.0262178
0.0282171
0.0302188
0.0322132
0.0341927
0.0361481
0.0380747
0.0399655
0.0418202
0.0436355
0.0454156
0.0471628
0.0488805
0.0505864
0.0522603
0.0539714
0.0556067
0.0573993
0.0589504
0.0609672
0.0622641
0.0648127
0.0653866
0.0692024
0.06789
0.0745874
0.0692998
0.0809689
0.0704365
0.0867294
0.0739145
0.089497
0.0803752
0.0896724
0.0866083
0.09011
</DataArray>
</CellData>
</Piece>
</RectilinearGrid>
</VTKFile>
