<?xml version="1.0"?>
<VTKFile type="RectilinearGrid">
<RectilinearGrid WholeExtent="0 100 0 0 0 0">
<Piece Extent="0 100 0 0 0 0">
<Coordinates>
<DataArray type="Float32" format="ascii">
0
1
2
3
4
5
6
7
8
9
10
11
12
13
14
15
16
17
18
19
20
21
22
23
24
25
26
27
28
29
30
31
32
33
34
35
36
37
38
39
40
41
42
43
44
45
46
47
48
49
50
51
52
53
54
55
56
57
58
59
60
61
62
63
64
65
66
67
68
69
70
71
72
73
74
75
76
77
78
79
80
81
82
83
84
85
86
87
88
89
90
91
92
93
94
95
96
97
98
99
100
</DataArray>
<DataArray type="Float32" format="ascii">
0
</DataArray>
<DataArray type="Float32" format="ascii">
0
</DataArray>
</Coordinates>
<CellData>
<DataArray Name="h" type="Float32" format="ascii">
0.107988
0.108897
0.110061
0.111411
0.112958
0.114731
0.116764
0.11909
0.121744
0.124751
0.128131
0.131895
0.136044
0.140574
0.145471
0.150714
0.156271
0.162101
0.168153
0.174372
0.180694
0.18706
0.193408
0.199682
0.205835
0.211824
0.217617
0.223188
0.228517
0.233594
0.238408
0.242957
0.247237
0.251256
0.254997
0.258499
0.261704
0.264711
0.267386
0.269915
0.272076
0.27413
0.275803
0.277377
0.278584
0.279679
0.280429
0.281053
0.281346
0.281509
0.281346
0.281053
0.280429
0.279679
0.278584
0.277377
0.275803
0.27413
0.272076
0.269915
0.267386
0.264711
0.261704
0.258499
0.254997
0.251256
0.247237
0.242957
0.238408
0.233594
0.228517
0.223188
0.217617
0.211824
0.205835
0.199682
0.193408
0.18706
0.180694
0.174372
0.168153
0.162101
0.156271
0.150714
0.14547
0.140571
0.136035
0.131875
0.128093
0.124685
0.121642
0.118949
0.116583
0.114517
0.112718
0.111154
0.109794
0.108611
0.107594
0.106803
</DataArray>
<DataArray Name="hu" type="Float32" format="ascii">
-0.00487759
-0.00586172
-0.00713366
-0.00861851
-0.0103247
-0.0122718
-0.0144808
-0.0169748
-0.0197804
-0.0229291
-0.0264557
-0.0303953
-0.0347775
-0.0396202
-0.0449246
-0.0506711
-0.0568162
-0.063291
-0.0700025
-0.0768362
-0.0836605
-0.0903339
-0.0967121
-0.102656
-0.108038
-0.112747
-0.116691
-0.119801
-0.122026
-0.123339
-0.123723
-0.123189
-0.121739
-0.119419
-0.116225
-0.112264
-0.107466
-0.102058
-0.0958354
-0.0891846
-0.0817591
-0.0740578
-0.065681
-0.0571181
-0.0480424
-0.0388238
-0.0292809
-0.0196347
-0.00983832
0
0.00983832
0.0196347
0.0292809
0.0388238
0.0480424
0.0571181
0.065681
0.0740578
0.0817591
0.0891846
0.0958354
0.102058
0.107466
0.112264
0.116225
0.119419
0.121739
0.123189
0.123723
0.123339
0.122026
0.119801
0.116691
0.112747
0.108038
0.102656
0.0967121
0.0903339
0.0836605
0.0768362
0.0700025
0.063291
0.0568162
0.0506714
0.0449257
0.0396234
0.0347859
0.0304141
0.0264923
0.0229922
0.0198781
0.0171118
0.0146572
0.0124828
0.0105625
0.00887417
0.00739784
0.00611549
0.00501903
0.00417275
</DataArray>
</CellData>
</Piece>
</RectilinearGrid>
</VTKFile>
