<?xml version="1.0"?>
<VTKFile type="RectilinearGrid">
<RectilinearGrid WholeExtent="0 100 0 0 0 0">
<Piece Extent="0 100 0 0 0 0">
<Coordinates>
<DataArray type="Float32" format="ascii">
0
1
2
3
4
5
6
7
8
9
10
11
12
13
14
15
16
17
18
19
20
21
22
23
24
25
26
27
28
29
30
31
32
33
34
35
36
37
38
39
40
41
42
43
44
45
46
47
48
49
50
51
52
53
54
55
56
57
58
59
60
61
62
63
64
65
66
67
68
69
70
71
72
73
74
75
76
77
78
79
80
81
82
83
84
85
86
87
88
89
90
91
92
93
94
95
96
97
98
99
100
</DataArray>
<DataArray type="Float32" format="ascii">
0
</DataArray>
<DataArray type="Float32" format="ascii">
0
</DataArray>
</Coordinates>
<CellData>
<DataArray Name="h" type="Float32" format="ascii">
0.104523
0.104974
0.105591
0.106366
0.107328
0.108493
0.109865
0.111442
0.113233
0.115254
0.117523
0.120061
0.122887
0.126021
0.129479
0.133278
0.137432
0.141949
0.146839
0.152102
0.157736
0.163735
0.170083
0.176762
0.183746
0.191004
0.198499
0.206187
0.214022
0.221955
0.22993
0.237894
0.245789
0.25356
0.261152
0.268511
0.275587
0.28233
0.288697
0.294645
0.300138
0.30514
0.309624
0.31356
0.31693
0.31971
0.321889
0.323452
0.324394
0.324707
0.324394
0.323452
0.321889
0.31971
0.31693
0.31356
0.309624
0.30514
0.300138
0.294645
0.288697
0.28233
0.275587
0.268511
0.261152
0.25356
0.245789
0.237894
0.22993
0.221955
0.214022
0.206187
0.198499
0.191004
0.183746
0.176762
0.170083
0.163735
0.157736
0.152102
0.146839
0.141949
0.137432
0.133278
0.129479
0.126021
0.122887
0.120061
0.117523
0.115254
0.113233
0.111442
0.10986
0.108472
0.107269
0.10625
0.105412
0.104737
0.104203
0.103812
</DataArray>
<DataArray Name="hu" type="Float32" format="ascii">
-0.00124219
-0.0016788
-0.00221439
-0.00278275
-0.00336473
-0.00396547
-0.00460755
-0.00531766
-0.00611633
-0.00701745
-0.00803226
-0.00917197
-0.0104481
-0.0118721
-0.0134551
-0.0152076
-0.0171382
-0.0192534
-0.0215568
-0.0240474
-0.0267195
-0.029561
-0.0325529
-0.0356685
-0.0388724
-0.0421211
-0.0453625
-0.0485372
-0.0515791
-0.0544174
-0.0569781
-0.0591865
-0.0609697
-0.0622588
-0.0629915
-0.0631139
-0.0625831
-0.0613675
-0.0594497
-0.0568246
-0.0535027
-0.049507
-0.0448748
-0.0396534
-0.0339068
-0.0277
-0.0211195
-0.0142449
-0.00717472
0
0.00717472
0.0142449
0.0211195
0.0277
0.0339068
0.0396534
0.0448748
0.049507
0.0535027
0.0568246
0.0594497
0.0613675
0.0625831
0.0631139
0.0629915
0.0622588
0.0609697
0.0591865
0.0569781
0.0544174
0.0515791
0.0485372
0.0453625
0.0421211
0.0388724
0.0356685
0.0325529
0.029561
0.0267195
0.0240474
0.0215568
0.0192534
0.0171382
0.0152076
0.0134551
0.0118721
0.0104481
0.00917197
0.00803226
0.00701745
0.00611633
0.00531824
0.00461263
0.00398697
0.00342316
0.00289794
0.00239154
0.00189921
0.00143699
0.00106129
</DataArray>
</CellData>
</Piece>
</RectilinearGrid>
</VTKFile>
