<?xml version="1.0"?>
<VTKFile type="RectilinearGrid">
<RectilinearGrid WholeExtent="0 100 0 0 0 0">
<Piece Extent="0 100 0 0 0 0">
<Coordinates>
<DataArray type="Float32" format="ascii">
0
1
2
3
4
5
6
7
8
9
10
11
12
13
14
15
16
17
18
19
20
21
22
23
24
25
26
27
28
29
30
31
32
33
34
35
36
37
38
39
40
41
42
43
44
45
46
47
48
49
50
51
52
53
54
55
56
57
58
59
60
61
62
63
64
65
66
67
68
69
70
71
72
73
74
75
76
77
78
79
80
81
82
83
84
85
86
87
88
89
90
91
92
93
94
95
96
97
98
99
100
</DataArray>
<DataArray type="Float32" format="ascii">
0
</DataArray>
<DataArray type="Float32" format="ascii">
0
</DataArray>
</Coordinates>
<CellData>
<DataArray Name="h" type="Float32" format="ascii">
0.201083
0.200205
0.200386
0.198607
0.199469
0.196455
0.198884
0.193815
0.19965
0.190266
0.204027
0.183733
0.216672
0.167402
0.240106
0.132635
0.251996
0.10637
0.219505
0.131823
0.180072
0.163004
0.17304
0.172654
0.175196
0.175213
0.175757
0.175264
0.17498
0.174205
0.173606
0.172765
0.172118
0.171346
0.170775
0.17013
0.169672
0.169161
0.168812
0.168419
0.168162
0.167865
0.167685
0.167467
0.16735
0.167198
0.167137
0.167042
0.167033
0.16699
0.167033
0.167042
0.167137
0.167198
0.16735
0.167467
0.167685
0.167865
0.168162
0.168418
0.168812
0.16916
0.169671
0.170128
0.170772
0.171341
0.17211
0.172752
0.173589
0.174179
0.174946
0.175215
0.175698
0.175131
0.175105
0.17254
0.172913
0.162955
0.17979
0.132144
0.218829
0.106874
0.251172
0.132819
0.239467
0.16728
0.2162
0.183471
0.203618
0.189943
0.199256
0.193458
0.198489
0.196077
0.19907
0.198215
0.199984
0.199806
0.200684
0.200629
</DataArray>
<DataArray Name="hu" type="Float32" format="ascii">
-0.160816
-0.158884
-0.159276
-0.155383
-0.157247
-0.150705
-0.155943
-0.145047
-0.157623
-0.137675
-0.167574
-0.124908
-0.197795
-0.0954874
-0.256419
-0.0388845
-0.280995
7.1913e-05
-0.195458
-0.0313921
-0.108327
-0.0747232
-0.0893498
-0.0854294
-0.0875109
-0.0844666
-0.0833348
-0.0798086
-0.0774512
-0.073822
-0.0709391
-0.0673384
-0.0641752
-0.0605812
-0.0572221
-0.053586
-0.0500666
-0.0463589
-0.0427058
-0.0389213
-0.0351624
-0.031312
-0.0274751
-0.0235763
-0.0196866
-0.0157571
-0.0118344
-0.00788925
-0.00394836
0
0.00394836
0.00788925
0.0118344
0.0157571
0.0196866
0.0235764
0.0274751
0.0313121
0.0351625
0.0389216
0.0427062
0.0463596
0.0500678
0.053588
0.0572252
0.0605862
0.0641824
0.0673495
0.0709541
0.0738447
0.0774797
0.0798512
0.083385
0.0845433
0.0875957
0.0855806
0.08948
0.0751406
0.108283
0.0324429
0.194677
0.00112215
0.279808
0.0397244
0.255724
0.095969
0.197629
0.125231
0.167639
0.137943
0.157774
0.145294
0.156131
0.150943
0.157457
0.155619
0.159501
0.159122
0.161061
0.160942
</DataArray>
</CellData>
</Piece>
</RectilinearGrid>
</VTKFile>
