<?xml version="1.0"?>
<VTKFile type="RectilinearGrid">
<RectilinearGrid WholeExtent="0 100 0 0 0 0">
<Piece Extent="0 100 0 0 0 0">
<Coordinates>
<DataArray type="Float32" format="ascii">
0
1
2
3
4
5
6
7
8
9
10
11
12
13
14
15
16
17
18
19
20
21
22
23
24
25
26
27
28
29
30
31
32
33
34
35
36
37
38
39
40
41
42
43
44
45
46
47
48
49
50
51
52
53
54
55
56
57
58
59
60
61
62
63
64
65
66
67
68
69
70
71
72
73
74
75
76
77
78
79
80
81
82
83
84
85
86
87
88
89
90
91
92
93
94
95
96
97
98
99
100
</DataArray>
<DataArray type="Float32" format="ascii">
0
</DataArray>
<DataArray type="Float32" format="ascii">
0
</DataArray>
</Coordinates>
<CellData>
<DataArray Name="h" type="Float32" format="ascii">
0.200054
0.200849
0.20112
0.201419
0.200773
0.20124
0.19921
0.200962
0.196474
0.20124
0.192461
0.20301
0.186607
0.207805
0.177329
0.217684
0.161778
0.233085
0.138761
0.247437
0.117568
0.247155
0.116896
0.228524
0.138131
0.206806
0.159706
0.193842
0.170358
0.187593
0.173951
0.18398
0.1749
0.181445
0.175037
0.17959
0.174953
0.178262
0.174822
0.177334
0.174687
0.176688
0.174559
0.176241
0.174448
0.175944
0.174364
0.175772
0.174319
0.175715
0.174319
0.175772
0.174364
0.175944
0.174448
0.176241
0.174559
0.176688
0.174687
0.177334
0.174822
0.178262
0.174953
0.179589
0.175036
0.181443
0.174897
0.183975
0.173943
0.187582
0.170343
0.193816
0.159687
0.206745
0.13813
0.228396
0.116931
0.246943
0.1176
0.247168
0.138728
0.232789
0.161654
0.21737
0.177123
0.207473
0.186336
0.202661
0.192143
0.200877
0.196124
0.200588
0.198839
0.200858
0.200389
0.201031
0.200731
0.200459
0.199615
0.19838
</DataArray>
<DataArray Name="hu" type="Float32" format="ascii">
-0.158556
-0.160301
-0.160891
-0.16154
-0.160098
-0.161099
-0.156606
-0.160385
-0.15055
-0.160814
-0.141797
-0.164432
-0.129399
-0.174764
-0.110728
-0.196754
-0.0815019
-0.230933
-0.041115
-0.258525
-0.00438957
-0.246356
0.00418203
-0.194529
-0.0200458
-0.14232
-0.0502303
-0.11144
-0.0651754
-0.0946927
-0.0679152
-0.0829484
-0.0651092
-0.0727575
-0.0598572
-0.0631927
-0.0533311
-0.0539643
-0.0460227
-0.0449122
-0.0381893
-0.0359297
-0.0299974
-0.02696
-0.0215683
-0.0179822
-0.0129928
-0.00899407
-0.0043391
0
0.0043391
0.00899407
0.0129928
0.0179822
0.0215683
0.02696
0.0299974
0.0359297
0.0381893
0.0449122
0.0460227
0.0539644
0.0533314
0.0631932
0.0598583
0.0727588
0.0651124
0.0829515
0.0679243
0.0946984
0.065201
0.111446
0.0503026
0.142306
0.0202193
0.194446
-0.00389713
0.246181
0.00472231
0.258325
0.0414366
0.230805
0.0817902
0.196735
0.110989
0.174836
0.129642
0.164566
0.14203
0.16099
0.150776
0.160588
0.156831
0.161319
0.16033
0.161778
0.161139
0.160557
0.158713
0.156015
</DataArray>
</CellData>
</Piece>
</RectilinearGrid>
</VTKFile>
