<?xml version="1.0"?>
<VTKFile type="RectilinearGrid">
<RectilinearGrid WholeExtent="0 100 0 0 0 0">
<Piece Extent="0 100 0 0 0 0">
<Coordinates>
<DataArray type="Float32" format="ascii">
0
1
2
3
4
5
6
7
8
9
10
11
12
13
14
15
16
17
18
19
20
21
22
23
24
25
26
27
28
29
30
31
32
33
34
35
36
37
38
39
40
41
42
43
44
45
46
47
48
49
50
51
52
53
54
55
56
57
58
59
60
61
62
63
64
65
66
67
68
69
70
71
72
73
74
75
76
77
78
79
80
81
82
83
84
85
86
87
88
89
90
91
92
93
94
95
96
97
98
99
100
</DataArray>
<DataArray type="Float32" format="ascii">
0
</DataArray>
<DataArray type="Float32" format="ascii">
0
</DataArray>
</Coordinates>
<CellData>
<DataArray Name="h" type="Float32" format="ascii">
0.11027
0.111505
0.113077
0.114892
0.116965
0.119322
0.121997
0.125023
0.12843
0.132242
0.136471
0.14111
0.146137
0.151509
0.157166
0.163034
0.169033
0.175079
0.181093
0.187002
0.192748
0.198283
0.203576
0.208607
0.213365
0.21785
0.222064
0.22602
0.22972
0.233189
0.236413
0.239452
0.242224
0.244899
0.247228
0.249599
0.251495
0.253594
0.255089
0.256907
0.258058
0.259565
0.260424
0.261601
0.262188
0.263044
0.263352
0.263911
0.263925
0.264201
0.263925
0.263911
0.263352
0.263044
0.262188
0.261601
0.260424
0.259565
0.258058
0.256907
0.255089
0.253594
0.251495
0.249599
0.247228
0.244899
0.242224
0.239452
0.236413
0.233189
0.22972
0.22602
0.222064
0.21785
0.213365
0.208607
0.203576
0.198283
0.192748
0.187002
0.181093
0.175078
0.169031
0.163029
0.157154
0.151487
0.146098
0.141046
0.136376
0.132112
0.128264
0.124823
0.121769
0.119074
0.116704
0.114624
0.112803
0.111213
0.109842
0.108769
</DataArray>
<DataArray Name="hu" type="Float32" format="ascii">
-0.00737544
-0.00875767
-0.0105463
-0.0126502
-0.0150938
-0.0179185
-0.0211681
-0.0248862
-0.0291133
-0.0338847
-0.0392264
-0.045149
-0.0516402
-0.0586574
-0.0661219
-0.0739174
-0.0818945
-0.0898792
-0.0976861
-0.105132
-0.112051
-0.118297
-0.123759
-0.128353
-0.132028
-0.134759
-0.136536
-0.137379
-0.137298
-0.136354
-0.134534
-0.131982
-0.128557
-0.124627
-0.11973
-0.114655
-0.108446
-0.102409
-0.0951066
-0.0882168
-0.0800855
-0.0724171
-0.0637087
-0.0553639
-0.0462721
-0.0374016
-0.0280713
-0.0188469
-0.00941012
0
0.00941012
0.0188469
0.0280713
0.0374016
0.0462721
0.0553639
0.0637087
0.0724171
0.0800855
0.0882168
0.0951066
0.102409
0.108446
0.114655
0.11973
0.124627
0.128557
0.131982
0.134534
0.136354
0.137298
0.137379
0.136536
0.134759
0.132028
0.128353
0.123759
0.118297
0.112051
0.105133
0.0976863
0.0898798
0.0818962
0.0739218
0.0661316
0.0586768
0.0516753
0.0452067
0.0393136
0.0340065
0.0292714
0.0250788
0.0213902
0.0181631
0.0153539
0.0129194
0.0108178
0.00901141
0.00747794
0.00629582
</DataArray>
</CellData>
</Piece>
</RectilinearGrid>
</VTKFile>
