<?xml version="1.0"?>
<VTKFile type="RectilinearGrid">
<RectilinearGrid WholeExtent="0 100 0 0 0 0">
<Piece Extent="0 100 0 0 0 0">
<Coordinates>
<DataArray type="Float32" format="ascii">
0
1
2
3
4
5
6
7
8
9
10
11
12
13
14
15
16
17
18
19
20
21
22
23
24
25
26
27
28
29
30
31
32
33
34
35
36
37
38
39
40
41
42
43
44
45
46
47
48
49
50
51
52
53
54
55
56
57
58
59
60
61
62
63
64
65
66
67
68
69
70
71
72
73
74
75
76
77
78
79
80
81
82
83
84
85
86
87
88
89
90
91
92
93
94
95
96
97
98
99
100
</DataArray>
<DataArray type="Float32" format="ascii">
0
</DataArray>
<DataArray type="Float32" format="ascii">
0
</DataArray>
</Coordinates>
<CellData>
<DataArray Name="h" type="Float32" format="ascii">
0.196974
0.197157
0.195578
0.197263
0.19457
0.201355
0.192939
0.219383
0.179057
0.24846
0.137674
0.208345
0.154289
0.164432
0.160333
0.16079
0.161608
0.163414
0.164875
0.166246
0.167049
0.167636
0.167868
0.167953
0.167834
0.167602
0.167241
0.166791
0.166255
0.165652
0.164997
0.164304
0.163593
0.162879
0.162181
0.161513
0.160889
0.160314
0.159795
0.159333
0.158927
0.158576
0.158277
0.158026
0.157821
0.157657
0.157533
0.157446
0.157394
0.157377
0.157394
0.157445
0.157533
0.157657
0.15782
0.158026
0.158277
0.158576
0.158926
0.159331
0.159793
0.16031
0.160883
0.161505
0.162169
0.162862
0.163569
0.164272
0.164955
0.165597
0.166185
0.166703
0.167134
0.167473
0.167682
0.167778
0.167669
0.167416
0.166811
0.166
0.164628
0.163187
0.161412
0.160646
0.160265
0.164188
0.155507
0.206285
0.139426
0.24631
0.179069
0.218574
0.192597
0.20089
0.194185
0.196845
0.195181
0.196747
0.19658
0.197785
</DataArray>
<DataArray Name="hu" type="Float32" format="ascii">
-0.151853
-0.152247
-0.148851
-0.152484
-0.146718
-0.161544
-0.143474
-0.204016
-0.116755
-0.279251
-0.0447773
-0.181848
-0.0754588
-0.0928629
-0.0865431
-0.0864862
-0.0879784
-0.0897548
-0.0911903
-0.0913969
-0.0906018
-0.0888157
-0.0864432
-0.0836159
-0.0805657
-0.0773676
-0.0741221
-0.0708645
-0.0676291
-0.0644297
-0.0612696
-0.0581485
-0.0550546
-0.0519788
-0.0489052
-0.0458233
-0.0427212
-0.0395928
-0.0364328
-0.03324
-0.0300143
-0.0267579
-0.0234735
-0.0201646
-0.0168348
-0.0134879
-0.0101275
-0.00675719
-0.0033803
-2.78698e-09
0.0033803
0.00675722
0.0101276
0.013488
0.0168349
0.0201648
0.0234738
0.0267585
0.0300153
0.0332415
0.0364352
0.0395965
0.0427266
0.0458311
0.0489163
0.0519943
0.0550758
0.0581766
0.0613064
0.0644765
0.0676879
0.0709364
0.0742087
0.0774694
0.0806839
0.0837502
0.0865953
0.0889863
0.0907966
0.091623
0.0914662
0.0901004
0.0884269
0.0870417
0.0872979
0.0932805
0.0784997
0.178348
0.0485265
0.274866
0.117693
0.203221
0.143781
0.16161
0.146964
0.15267
0.149085
0.152459
0.152102
0.154713
</DataArray>
</CellData>
</Piece>
</RectilinearGrid>
</VTKFile>
