<?xml version="1.0"?>
<VTKFile type="RectilinearGrid">
<RectilinearGrid WholeExtent="0 100 0 0 0 0">
<Piece Extent="0 100 0 0 0 0">
<Coordinates>
<DataArray type="Float32" format="ascii">
0
1
2
3
4
5
6
7
8
9
10
11
12
13
14
15
16
17
18
19
20
21
22
23
24
25
26
27
28
29
30
31
32
33
34
35
36
37
38
39
40
41
42
43
44
45
46
47
48
49
50
51
52
53
54
55
56
57
58
59
60
61
62
63
64
65
66
67
68
69
70
71
72
73
74
75
76
77
78
79
80
81
82
83
84
85
86
87
88
89
90
91
92
93
94
95
96
97
98
99
100
</DataArray>
<DataArray type="Float32" format="ascii">
0
</DataArray>
<DataArray type="Float32" format="ascii">
0
</DataArray>
</Coordinates>
<CellData>
<DataArray Name="h" type="Float32" format="ascii">
0.163061
0.163762
0.158483
0.165007
0.152596
0.166024
0.148109
0.16439
0.14677
0.159912
0.147227
0.154667
0.147316
0.150246
0.146297
0.146776
0.144482
0.143884
0.142295
0.141307
0.140022
0.138956
0.137844
0.13684
0.135881
0.135005
0.134206
0.133488
0.132852
0.132291
0.131803
0.131378
0.13101
0.130688
0.130405
0.130151
0.129919
0.129702
0.129497
0.129299
0.129108
0.128925
0.128749
0.128586
0.128437
0.128307
0.128201
0.128121
0.128071
0.128052
0.128065
0.128109
0.128183
0.128283
0.128406
0.128547
0.128702
0.128868
0.129042
0.129222
0.129408
0.129601
0.129805
0.130024
0.130264
0.130533
0.130839
0.131192
0.131601
0.132072
0.132617
0.133237
0.13394
0.134722
0.135584
0.136524
0.137523
0.138606
0.139688
0.140913
0.141975
0.14341
0.144243
0.146141
0.146269
0.149344
0.147598
0.153694
0.147325
0.160193
0.144764
0.168378
0.141848
0.174121
0.143767
0.173314
0.152057
0.168395
0.161019
0.164835
</DataArray>
<DataArray Name="hu" type="Float32" format="ascii">
-0.0866114
-0.0840314
-0.0847614
-0.078094
-0.0836118
-0.0716535
-0.0813874
-0.0669291
-0.0769052
-0.0645029
-0.0711578
-0.0628758
-0.0656831
-0.0607599
-0.0610739
-0.0580362
-0.0571539
-0.0549929
-0.053631
-0.0518317
-0.0502976
-0.0486232
-0.0470176
-0.0453594
-0.0436974
-0.042
-0.0402725
-0.0385096
-0.0367099
-0.0348767
-0.0330116
-0.0311215
-0.0292121
-0.027292
-0.0253694
-0.0234532
-0.0215519
-0.0196735
-0.0178251
-0.0160124
-0.0142399
-0.01251
-0.010824
-0.0091811
-0.00757877
-0.00601305
-0.00447844
-0.00296811
-0.00147445
1.11538e-05
0.00149728
0.00299277
0.00450601
0.00604475
0.00761559
0.00922409
0.010874
0.012568
0.0143063
0.0160881
0.0179103
0.0197687
0.0216573
0.0235691
0.0254958
0.0274292
0.0293599
0.0312802
0.0331808
0.0350568
0.0369004
0.0387109
0.0404834
0.0422218
0.0439264
0.0456009
0.0472603
0.0488859
0.0505446
0.0521234
0.0538612
0.0553411
0.0573158
0.058504
0.0610697
0.061426
0.0654444
0.0635871
0.0710584
0.0641882
0.078278
0.0636365
0.0857108
0.0653741
0.0899449
0.0721591
0.0895816
0.0809599
0.0883907
0.0871839
</DataArray>
</CellData>
</Piece>
</RectilinearGrid>
</VTKFile>
