<?xml version="1.0"?>
<VTKFile type="RectilinearGrid">
<RectilinearGrid WholeExtent="0 100 0 0 0 0">
<Piece Extent="0 100 0 0 0 0">
<Coordinates>
<DataArray type="Float32" format="ascii">
0
1
2
3
4
5
6
7
8
9
10
11
12
13
14
15
16
17
18
19
20
21
22
23
24
25
26
27
28
29
30
31
32
33
34
35
36
37
38
39
40
41
42
43
44
45
46
47
48
49
50
51
52
53
54
55
56
57
58
59
60
61
62
63
64
65
66
67
68
69
70
71
72
73
74
75
76
77
78
79
80
81
82
83
84
85
86
87
88
89
90
91
92
93
94
95
96
97
98
99
100
</DataArray>
<DataArray type="Float32" format="ascii">
0
</DataArray>
<DataArray type="Float32" format="ascii">
0
</DataArray>
</Coordinates>
<CellData>
<DataArray Name="h" type="Float32" format="ascii">
0.103802
0.104196
0.104791
0.105582
0.106551
0.107677
0.108964
0.110431
0.112095
0.113975
0.116091
0.118461
0.121106
0.124044
0.127293
0.130871
0.134794
0.139073
0.143722
0.148746
0.15415
0.159934
0.166093
0.172617
0.179492
0.186696
0.194204
0.201983
0.209995
0.218198
0.226544
0.234979
0.243447
0.251889
0.260243
0.268444
0.276428
0.284131
0.291488
0.29844
0.304926
0.310891
0.316284
0.321058
0.325172
0.328589
0.331279
0.333218
0.334388
0.33478
0.334388
0.333218
0.331279
0.328589
0.325172
0.321058
0.316284
0.310891
0.304926
0.29844
0.291488
0.284131
0.276428
0.268444
0.260243
0.251889
0.243447
0.234979
0.226544
0.218198
0.209995
0.201983
0.194204
0.186696
0.179492
0.172617
0.166093
0.159934
0.15415
0.148746
0.143722
0.139073
0.134794
0.130871
0.127293
0.124044
0.121106
0.118461
0.116091
0.113975
0.112095
0.110431
0.108964
0.107677
0.106551
0.105571
0.10473
0.104045
0.103532
0.103193
</DataArray>
<DataArray Name="hu" type="Float32" format="ascii">
-0.000527772
-0.000830678
-0.00113548
-0.00139299
-0.00163225
-0.00189152
-0.00218607
-0.0025199
-0.00289732
-0.00332297
-0.00380184
-0.00433916
-0.00494042
-0.00561121
-0.00635712
-0.00718352
-0.00809539
-0.00909697
-0.0101915
-0.0113806
-0.0126642
-0.0140397
-0.0155016
-0.0170413
-0.0186461
-0.0202994
-0.02198
-0.0236625
-0.025317
-0.0269096
-0.0284027
-0.0297562
-0.0309282
-0.031876
-0.0325581
-0.0329351
-0.0329711
-0.032636
-0.031906
-0.0307652
-0.0292067
-0.0272333
-0.0248576
-0.0221024
-0.0190006
-0.0155936
-0.0119316
-0.0080696
-0.00407099
0
0.00407099
0.0080696
0.0119316
0.0155936
0.0190006
0.0221024
0.0248576
0.0272333
0.0292067
0.0307652
0.031906
0.032636
0.0329711
0.0329351
0.0325581
0.031876
0.0309282
0.0297562
0.0284027
0.0269096
0.025317
0.0236625
0.02198
0.0202994
0.0186461
0.0170413
0.0155016
0.0140397
0.0126642
0.0113806
0.0101915
0.00909697
0.00809539
0.00718352
0.00635712
0.00561121
0.00494042
0.00433916
0.00380184
0.00332297
0.00289732
0.0025199
0.00218607
0.00189152
0.00163225
0.00140461
0.00119549
0.000972239
0.00070983
0.000450033
</DataArray>
</CellData>
</Piece>
</RectilinearGrid>
</VTKFile>
