<?xml version="1.0"?>
<VTKFile type="RectilinearGrid">
<RectilinearGrid WholeExtent="0 100 0 0 0 0">
<Piece Extent="0 100 0 0 0 0">
<Coordinates>
<DataArray type="Float32" format="ascii">
0
10
20
30
40
50
60
70
80
90
100
110
120
130
140
150
160
170
180
190
200
210
220
230
240
250
260
270
280
290
300
310
320
330
340
350
360
370
380
390
400
410
420
430
440
450
460
470
480
490
500
510
520
530
540
550
560
570
580
590
600
610
620
630
640
650
660
670
680
690
700
710
720
730
740
750
760
770
780
790
800
810
820
830
840
850
860
870
880
890
900
910
920
930
940
950
960
970
980
990
1000
</DataArray>
<DataArray type="Float32" format="ascii">
0
</DataArray>
<DataArray type="Float32" format="ascii">
0
</DataArray>
</Coordinates>
<CellData>
<DataArray Name="h" type="Float32" format="ascii">
15
15
15
15
15
15
15
15
15
15
15
15
15
15
15
15
15
15
15
15
15
15
15
15
15
15
15
15
15
15
15
15
15
15
15
15
15
15
15
15
15
15
15
15
14.9219
14.6875
14.2773
13.7305
13.1152
12.5
11.936
11.4526
11.0599
10.7544
10.5253
10.3587
10.2406
10.1589
10.1035
10.0665
10.0423
10.0266
10.0165
10.0102
10.0062
10.0038
10.0023
10.0014
10.0008
10.0005
10.0003
10.0002
10.0001
10.0001
10
10
10
10
10
10
10
10
10
10
10
10
10
10
10
10
10
10
10
10
10
10
10
10
10
10
</DataArray>
<DataArray Name="hu" type="Float32" format="ascii">
0
0
0
0
0
0
0
0
0
0
0
0
0
0
0
0
0
0
0
0
0
0
0
0
0
0
0
0
0
0
0
0
0
0
0
0
0
0
0
0
0
0
0
0
-4.88229e-15
-1.92434e-14
-3.89196e-14
-5.64989e-14
-6.69817e-14
-6.92469e-14
-6.48687e-14
-5.64244e-14
-4.6327e-14
-3.63195e-14
-2.74159e-14
-2.00499e-14
-1.42733e-14
-9.92754e-15
-6.76612e-15
-4.52957e-15
-2.98436e-15
-1.93838e-15
-1.24289e-15
-7.8769e-16
-4.9392e-16
-3.06713e-16
-1.8877e-16
-1.15229e-16
-6.98052e-17
-4.19847e-17
-2.50836e-17
-1.49005e-17
-8.80231e-18
-5.16918e-18
-3.01812e-18
-1.75296e-18
-1.01835e-18
-5.88981e-19
-3.37288e-19
-1.92723e-19
-1.06932e-19
-5.91841e-20
-3.26798e-20
-1.80048e-20
-9.89879e-21
-5.43129e-21
-2.97436e-21
-1.62589e-21
-8.87221e-22
-4.83334e-22
-2.62886e-22
-1.42765e-22
-7.74164e-23
-4.19208e-23
-2.26691e-23
-1.22424e-23
-6.60311e-24
-3.55777e-24
-1.92224e-24
-1.10448e-24
</DataArray>
</CellData>
</Piece>
</RectilinearGrid>
</VTKFile>
