<?xml version="1.0"?>
<VTKFile type="RectilinearGrid">
<RectilinearGrid WholeExtent="0 100 0 0 0 0">
<Piece Extent="0 100 0 0 0 0">
<Coordinates>
<DataArray type="Float32" format="ascii">
0
10
20
30
40
50
60
70
80
90
100
110
120
130
140
150
160
170
180
190
200
210
220
230
240
250
260
270
280
290
300
310
320
330
340
350
360
370
380
390
400
410
420
430
440
450
460
470
480
490
500
510
520
530
540
550
560
570
580
590
600
610
620
630
640
650
660
670
680
690
700
710
720
730
740
750
760
770
780
790
800
810
820
830
840
850
860
870
880
890
900
910
920
930
940
950
960
970
980
990
1000
</DataArray>
<DataArray type="Float32" format="ascii">
0
</DataArray>
<DataArray type="Float32" format="ascii">
0
</DataArray>
</Coordinates>
<CellData>
<DataArray Name="h" type="Float32" format="ascii">
15
15
15
15
15
15
15
15
15
15
15
15
15
15
15
15
15
15
15
15
15
15
15
15
15
15
15
15
15
15
15
15
15
14.9998
14.999
14.9963
14.9891
14.9734
14.9434
14.8918
14.8112
14.6948
14.5377
14.3377
14.096
13.8172
13.5085
13.1792
12.8396
12.5
12.1698
11.8571
11.5678
11.306
11.074
10.8722
10.6999
10.5551
10.4354
10.3379
10.2595
10.1974
10.1487
10.111
10.0821
10.0602
10.0438
10.0316
10.0227
10.0161
10.0114
10.008
10.0056
10.0039
10.0027
10.0018
10.0012
10.0008
10.0006
10.0004
10.0003
10.0002
10.0001
10.0001
10
10
10
10
10
10
10
10
10
10
10
10
10
10
10
10
</DataArray>
<DataArray Name="hu" type="Float32" format="ascii">
0
0
0
0
0
0
0
0
0
0
0
0
0
0
0
0
0
0
0
0
0
0
0
0
0
0
0
0
0
0
0
0
-3.71318e-18
-3.70417e-17
-1.91138e-16
-6.81881e-16
-1.89365e-15
-4.36673e-15
-8.70586e-15
-1.54237e-14
-2.47668e-14
-3.65851e-14
-5.02918e-14
-6.49293e-14
-7.93212e-14
-9.22671e-14
-1.0273e-13
-1.09973e-13
-1.13631e-13
-1.13708e-13
-1.10521e-13
-1.04609e-13
-9.66388e-14
-8.73067e-14
-7.72713e-14
-6.71015e-14
-5.72505e-14
-4.80488e-14
-3.97105e-14
-3.23491e-14
-2.5997e-14
-2.06264e-14
-1.61682e-14
-1.25289e-14
-9.60351e-15
-7.2852e-15
-5.47219e-15
-4.07178e-15
-3.00259e-15
-2.19515e-15
-1.59166e-15
-1.14499e-15
-8.17454e-16
-5.79384e-16
-4.07789e-16
-2.85097e-16
-1.98043e-16
-1.36718e-16
-9.38195e-17
-6.4015e-17
-4.34359e-17
-2.9312e-17
-1.96718e-17
-1.31376e-17
-8.73142e-18
-5.7754e-18
-3.79999e-18
-2.48452e-18
-1.61696e-18
-1.04925e-18
-6.77431e-19
-4.34435e-19
-2.76609e-19
-1.72036e-19
-1.06723e-19
-6.60518e-20
-4.08273e-20
-2.53298e-20
-1.61384e-20
-1.15427e-20
</DataArray>
</CellData>
</Piece>
</RectilinearGrid>
</VTKFile>
