<?xml version="1.0"?>
<VTKFile type="RectilinearGrid">
<RectilinearGrid WholeExtent="0 100 0 0 0 0">
<Piece Extent="0 100 0 0 0 0">
<Coordinates>
<DataArray type="Float32" format="ascii">
0
1
2
3
4
5
6
7
8
9
10
11
12
13
14
15
16
17
18
19
20
21
22
23
24
25
26
27
28
29
30
31
32
33
34
35
36
37
38
39
40
41
42
43
44
45
46
47
48
49
50
51
52
53
54
55
56
57
58
59
60
61
62
63
64
65
66
67
68
69
70
71
72
73
74
75
76
77
78
79
80
81
82
83
84
85
86
87
88
89
90
91
92
93
94
95
96
97
98
99
100
</DataArray>
<DataArray type="Float32" format="ascii">
0
</DataArray>
<DataArray type="Float32" format="ascii">
0
</DataArray>
</Coordinates>
<CellData>
<DataArray Name="h" type="Float32" format="ascii">
0.197597
0.199273
0.20036
0.201078
0.201198
0.201512
0.200619
0.201401
0.198697
0.201512
0.195295
0.202651
0.190129
0.205834
0.18248
0.212375
0.170969
0.223209
0.154437
0.236604
0.135446
0.245865
0.123419
0.243281
0.12724
0.229715
0.142468
0.214292
0.156899
0.203142
0.165405
0.196169
0.169635
0.191578
0.171897
0.188274
0.173357
0.185822
0.17441
0.18404
0.175161
0.182787
0.175658
0.181935
0.175958
0.181386
0.176118
0.181078
0.176186
0.180979
0.176186
0.181078
0.176118
0.181386
0.175958
0.181935
0.175658
0.182787
0.175161
0.18404
0.17441
0.185822
0.173357
0.188273
0.171896
0.191577
0.169633
0.196166
0.165401
0.203134
0.156892
0.21427
0.142459
0.229667
0.127236
0.243188
0.123413
0.245722
0.135414
0.236414
0.154352
0.222977
0.170817
0.212105
0.182261
0.20553
0.189851
0.202318
0.194972
0.201159
0.198344
0.201034
0.200249
0.201136
0.20082
0.200697
0.199979
0.198892
0.197116
0.194637
</DataArray>
<DataArray Name="hu" type="Float32" format="ascii">
-0.153199
-0.156845
-0.159218
-0.160786
-0.161032
-0.161694
-0.159682
-0.161338
-0.155321
-0.161354
-0.147687
-0.163442
-0.136294
-0.169789
-0.119959
-0.183313
-0.0965579
-0.205924
-0.0647723
-0.232367
-0.0294422
-0.245221
-0.00462684
-0.228453
-0.00315624
-0.189512
-0.0212941
-0.150419
-0.0412199
-0.122203
-0.0520675
-0.102733
-0.0548216
-0.0875957
-0.0530599
-0.0744174
-0.0489195
-0.0623378
-0.043316
-0.0510423
-0.0366572
-0.0403203
-0.0292126
-0.0299834
-0.0212136
-0.0198825
-0.012858
-0.00991237
-0.00430664
0
0.00430664
0.00991237
0.012858
0.0198825
0.0212136
0.0299834
0.0292126
0.0403203
0.0366572
0.0510423
0.043316
0.0623379
0.0489197
0.0744177
0.0530606
0.0875963
0.054824
0.102734
0.0520749
0.122204
0.0412419
0.150416
0.0213506
0.189491
0.00326842
0.2284
0.00479347
0.245143
0.0296423
0.232302
0.0649853
0.205908
0.0967735
0.183362
0.120175
0.169899
0.136509
0.163599
0.147902
0.161544
0.155538
0.161549
0.159905
0.161922
0.161269
0.161034
0.159479
0.157114
0.15326
0.147922
</DataArray>
</CellData>
</Piece>
</RectilinearGrid>
</VTKFile>
