<?xml version="1.0"?>
<VTKFile type="RectilinearGrid">
<RectilinearGrid WholeExtent="0 100 0 0 0 0">
<Piece Extent="0 100 0 0 0 0">
<Coordinates>
<DataArray type="Float32" format="ascii">
0
1
2
3
4
5
6
7
8
9
10
11
12
13
14
15
16
17
18
19
20
21
22
23
24
25
26
27
28
29
30
31
32
33
34
35
36
37
38
39
40
41
42
43
44
45
46
47
48
49
50
51
52
53
54
55
56
57
58
59
60
61
62
63
64
65
66
67
68
69
70
71
72
73
74
75
76
77
78
79
80
81
82
83
84
85
86
87
88
89
90
91
92
93
94
95
96
97
98
99
100
</DataArray>
<DataArray type="Float32" format="ascii">
0
</DataArray>
<DataArray type="Float32" format="ascii">
0
</DataArray>
</Coordinates>
<CellData>
<DataArray Name="h" type="Float32" format="ascii">
0.15812
0.155751
0.157977
0.150845
0.158838
0.143094
0.159636
0.136574
0.158797
0.136624
0.15525
0.139479
0.149783
0.140465
0.144639
0.139711
0.140785
0.138145
0.137861
0.136201
0.13539
0.134125
0.133158
0.132078
0.13112
0.130172
0.129302
0.128488
0.127746
0.127077
0.126481
0.125959
0.125508
0.125124
0.124802
0.124536
0.124319
0.124146
0.124008
0.123901
0.123818
0.123755
0.123708
0.123672
0.123645
0.123626
0.123611
0.1236
0.123591
0.123585
0.123581
0.12358
0.123581
0.123585
0.123594
0.12361
0.123634
0.12367
0.123721
0.123792
0.123887
0.124011
0.124171
0.124374
0.124626
0.124933
0.125302
0.125738
0.126244
0.126824
0.127478
0.128206
0.129004
0.129863
0.130792
0.131749
0.132796
0.133791
0.134977
0.135896
0.137353
0.137941
0.140115
0.139738
0.14403
0.141078
0.150989
0.139341
0.153018
0.139365
0.163397
0.247564
-0.136401
-0.00695939
-11.6145
13.0083
-5.03889
5.22365
-2.12618
1.74746
</DataArray>
<DataArray Name="hu" type="Float32" format="ascii">
-0.0770873
-0.0755931
-0.0733103
-0.0753674
-0.0679204
-0.0755401
-0.059508
-0.071596
-0.0510688
-0.0643185
-0.0481482
-0.0584875
-0.0488845
-0.054306
-0.0489361
-0.0505959
-0.0474133
-0.0471699
-0.0450467
-0.0440524
-0.0424026
-0.0411522
-0.0396929
-0.0383598
-0.0369609
-0.0355888
-0.0341862
-0.032773
-0.0313331
-0.0298683
-0.0283758
-0.0268559
-0.0253111
-0.0237445
-0.0221613
-0.0205671
-0.0189688
-0.0173732
-0.0157873
-0.0142176
-0.0126698
-0.0111487
-0.00965729
-0.00819739
-0.0067688
-0.00536964
-0.00399631
-0.00264366
-0.0013053
2.60199e-05
0.00135805
0.0026984
0.00405432
0.0054321
0.00683678
0.00827181
0.00973901
0.0112383
0.012768
0.0143248
0.0159039
0.0174994
0.019105
0.0207135
0.022318
0.0239117
0.0254889
0.0270442
0.0285748
0.0300775
0.0315529
0.0330017
0.0344259
0.0358342
0.03722
0.0386164
0.0399745
0.041408
0.0427209
0.0442816
0.0454419
0.0473227
0.0479585
0.0506034
0.0494714
0.0537293
0.0473018
0.056008
0.0386004
0.0356058
-0.0831423
-0.257151
-0.414535
-4.24802
3.50819
-7.111
0.923848
-0.127038
5.20301
2.8259
</DataArray>
</CellData>
</Piece>
</RectilinearGrid>
</VTKFile>
