<?xml version="1.0"?>
<VTKFile type="RectilinearGrid">
<RectilinearGrid WholeExtent="0 100 0 0 0 0">
<Piece Extent="0 100 0 0 0 0">
<Coordinates>
<DataArray type="Float32" format="ascii">
0
1
2
3
4
5
6
7
8
9
10
11
12
13
14
15
16
17
18
19
20
21
22
23
24
25
26
27
28
29
30
31
32
33
34
35
36
37
38
39
40
41
42
43
44
45
46
47
48
49
50
51
52
53
54
55
56
57
58
59
60
61
62
63
64
65
66
67
68
69
70
71
72
73
74
75
76
77
78
79
80
81
82
83
84
85
86
87
88
89
90
91
92
93
94
95
96
97
98
99
100
</DataArray>
<DataArray type="Float32" format="ascii">
0
</DataArray>
<DataArray type="Float32" format="ascii">
0
</DataArray>
</Coordinates>
<CellData>
<DataArray Name="h" type="Float32" format="ascii">
0.199073
0.200195
0.20097
0.201163
0.201465
0.200696
0.201312
0.198954
0.201214
0.195894
0.201903
0.191315
0.204371
0.184549
0.210094
0.174024
0.220633
0.157611
0.235257
0.136183
0.247044
0.119725
0.245401
0.121894
0.229382
0.140264
0.210908
0.158196
0.198584
0.167896
0.191671
0.171934
0.187423
0.173597
0.184469
0.174407
0.182334
0.174881
0.180818
0.175173
0.179765
0.175338
0.179045
0.175414
0.178564
0.175437
0.178265
0.175437
0.178121
0.175435
0.178121
0.175437
0.178265
0.175437
0.178564
0.175414
0.179045
0.175338
0.179765
0.175173
0.180818
0.174881
0.182334
0.174406
0.184468
0.173595
0.187421
0.17193
0.191665
0.167888
0.198569
0.158183
0.210871
0.140255
0.229301
0.121902
0.245258
0.119734
0.246843
0.13615
0.235015
0.157508
0.220358
0.173845
0.20979
0.184303
0.204041
0.191016
0.201553
0.195556
0.20085
0.198592
0.200937
0.200319
0.201083
0.200779
0.200585
0.199808
0.198617
0.196801
</DataArray>
<DataArray Name="hu" type="Float32" format="ascii">
-0.15641
-0.158863
-0.160561
-0.160975
-0.161622
-0.159899
-0.161211
-0.155982
-0.160844
-0.149168
-0.16208
-0.139142
-0.167082
-0.124781
-0.179211
-0.103556
-0.202051
-0.0724992
-0.232906
-0.0340631
-0.252792
-0.00335671
-0.23766
0.00119177
-0.192522
-0.0202359
-0.147139
-0.0453955
-0.117179
-0.0586767
-0.0986244
-0.0617349
-0.0849965
-0.0595625
-0.0732902
-0.0548558
-0.0625213
-0.0487258
-0.0523393
-0.0416615
-0.042534
-0.0339454
-0.0329486
-0.0257817
-0.0234804
-0.0173278
-0.0140706
-0.00870305
-0.00468764
0
0.00468764
0.00870305
0.0140706
0.0173278
0.0234804
0.0257817
0.0329486
0.0339453
0.042534
0.0416615
0.0523393
0.0487259
0.0625215
0.0548562
0.0732908
0.0595641
0.0849979
0.0617397
0.0986271
0.0586911
0.117181
0.045437
0.147131
0.0203385
0.192478
-0.00100665
0.237559
0.00359982
0.252662
0.034324
0.23281
0.0727531
0.202032
0.103797
0.17927
0.125013
0.167205
0.139368
0.162247
0.14939
0.161041
0.156203
0.161428
0.160127
0.161855
0.161218
0.160815
0.159125
0.156528
0.152583
</DataArray>
</CellData>
</Piece>
</RectilinearGrid>
</VTKFile>
