<?xml version="1.0"?>
<VTKFile type="RectilinearGrid">
<RectilinearGrid WholeExtent="0 100 0 0 0 0">
<Piece Extent="0 100 0 0 0 0">
<Coordinates>
<DataArray type="Float32" format="ascii">
0
10
20
30
40
50
60
70
80
90
100
110
120
130
140
150
160
170
180
190
200
210
220
230
240
250
260
270
280
290
300
310
320
330
340
350
360
370
380
390
400
410
420
430
440
450
460
470
480
490
500
510
520
530
540
550
560
570
580
590
600
610
620
630
640
650
660
670
680
690
700
710
720
730
740
750
760
770
780
790
800
810
820
830
840
850
860
870
880
890
900
910
920
930
940
950
960
970
980
990
1000
</DataArray>
<DataArray type="Float32" format="ascii">
0
</DataArray>
<DataArray type="Float32" format="ascii">
0
</DataArray>
</Coordinates>
<CellData>
<DataArray Name="h" type="Float32" format="ascii">
15
15
15
15
15
15
15
15
15
15
15
15
15
15
15
15
15
15
15
15
15
15
15
15
15
15
15
15
15
15
15
15
15
15
15
15
15
15
15
15
15
15
15
15
15
15
15
14.375
13.4375
12.5
11.7188
11.1328
10.7227
10.4492
10.2734
10.1636
10.0964
10.0562
10.0323
10.0185
10.0105
10.0059
10.0033
10.0018
10.001
10.0006
10.0003
10.0002
10.0001
10
10
10
10
10
10
10
10
10
10
10
10
10
10
10
10
10
10
10
10
10
10
10
10
10
10
10
10
10
10
10
</DataArray>
<DataArray Name="hu" type="Float32" format="ascii">
0
0
0
0
0
0
0
0
0
0
0
0
0
0
0
0
0
0
0
0
0
0
0
0
0
0
0
0
0
0
0
0
0
0
0
0
0
0
0
0
0
0
0
0
0
0
0
-1.86504e-14
-4.56219e-14
-5.31e-14
-4.73434e-14
-3.67999e-14
-2.6318e-14
-1.7797e-14
-1.15593e-14
-7.28208e-15
-4.47873e-15
-2.70162e-15
-1.6037e-15
-9.39189e-16
-5.43721e-16
-3.11655e-16
-1.7709e-16
-9.98573e-17
-5.59265e-17
-3.11318e-17
-1.7235e-17
-9.49989e-18
-5.21477e-18
-2.84848e-18
-1.54798e-18
-8.37455e-19
-4.50974e-19
-2.44152e-19
-1.32679e-19
-6.94203e-20
-3.62826e-20
-1.89435e-20
-9.8809e-21
-5.14903e-21
-2.68081e-21
-1.39455e-21
-7.24851e-22
-3.76464e-22
-1.95376e-22
-1.01323e-22
-5.25101e-23
-2.71951e-23
-1.40754e-23
-7.28052e-24
-3.76363e-24
-1.94448e-24
-1.00406e-24
-5.18187e-25
-2.67294e-25
-1.37808e-25
-7.10152e-26
-3.65785e-26
-1.884e-26
-9.97073e-27
</DataArray>
</CellData>
</Piece>
</RectilinearGrid>
</VTKFile>
