<?xml version="1.0"?>
<VTKFile type="RectilinearGrid">
<RectilinearGrid WholeExtent="0 100 0 0 0 0">
<Piece Extent="0 100 0 0 0 0">
<Coordinates>
<DataArray type="Float32" format="ascii">
0
1
2
3
4
5
6
7
8
9
10
11
12
13
14
15
16
17
18
19
20
21
22
23
24
25
26
27
28
29
30
31
32
33
34
35
36
37
38
39
40
41
42
43
44
45
46
47
48
49
50
51
52
53
54
55
56
57
58
59
60
61
62
63
64
65
66
67
68
69
70
71
72
73
74
75
76
77
78
79
80
81
82
83
84
85
86
87
88
89
90
91
92
93
94
95
96
97
98
99
100
</DataArray>
<DataArray type="Float32" format="ascii">
0
</DataArray>
<DataArray type="Float32" format="ascii">
0
</DataArray>
</Coordinates>
<CellData>
<DataArray Name="h" type="Float32" format="ascii">
0.184216
0.189416
0.193506
0.196458
0.198513
0.199935
0.20078
0.201377
0.201353
0.20173
0.200595
0.201834
0.198387
0.202613
0.194397
0.204919
0.188339
0.209328
0.180095
0.215823
0.170069
0.223266
0.159911
0.2292
0.15261
0.231057
0.150607
0.228295
0.153423
0.222854
0.158201
0.217219
0.162499
0.212632
0.165624
0.209085
0.167975
0.206132
0.17007
0.203477
0.172099
0.201105
0.173956
0.199144
0.175449
0.197709
0.176462
0.196847
0.176966
0.196561
0.176966
0.196847
0.176462
0.197709
0.175449
0.199144
0.173956
0.201105
0.172099
0.203477
0.17007
0.206132
0.167975
0.209085
0.165624
0.212632
0.162498
0.217218
0.1582
0.222851
0.15342
0.228286
0.1506
0.231038
0.152594
0.22916
0.159879
0.223196
0.170007
0.215712
0.179988
0.209169
0.188175
0.204707
0.194172
0.202349
0.198106
0.201527
0.200272
0.201392
0.201004
0.201021
0.200421
0.199575
0.198155
0.196105
0.19316
0.189063
0.183528
0.176795
</DataArray>
<DataArray Name="hu" type="Float32" format="ascii">
-0.125122
-0.135807
-0.144407
-0.150712
-0.155142
-0.158214
-0.160019
-0.161259
-0.161095
-0.161767
-0.159041
-0.16145
-0.153489
-0.162165
-0.143681
-0.165578
-0.12911
-0.172727
-0.109799
-0.183296
-0.0868715
-0.194355
-0.063613
-0.200121
-0.0453223
-0.195327
-0.0361266
-0.180015
-0.0352736
-0.159386
-0.0378672
-0.138761
-0.0394146
-0.12028
-0.0384483
-0.103575
-0.0355724
-0.0876658
-0.0317212
-0.0720208
-0.0273296
-0.0566513
-0.0223663
-0.0417582
-0.016698
-0.0274328
-0.0103434
-0.0135844
-0.00350516
0
0.00350516
0.0135844
0.0103434
0.0274328
0.016698
0.0417582
0.0223663
0.0566513
0.0273296
0.0720208
0.0317212
0.0876659
0.0355725
0.103575
0.0384484
0.12028
0.0394152
0.138762
0.0378695
0.159386
0.0352802
0.180015
0.0361427
0.195326
0.0453545
0.200123
0.0636669
0.194365
0.0869501
0.183328
0.109904
0.172792
0.129239
0.165683
0.143834
0.16231
0.153664
0.161629
0.159236
0.161971
0.161309
0.161482
0.160253
0.158461
0.155405
0.150997
0.144718
0.136112
0.124754
0.111366
</DataArray>
</CellData>
</Piece>
</RectilinearGrid>
</VTKFile>
