<?xml version="1.0"?>
<VTKFile type="RectilinearGrid">
<RectilinearGrid WholeExtent="0 100 0 0 0 0">
<Piece Extent="0 100 0 0 0 0">
<Coordinates>
<DataArray type="Float32" format="ascii">
0
1
2
3
4
5
6
7
8
9
10
11
12
13
14
15
16
17
18
19
20
21
22
23
24
25
26
27
28
29
30
31
32
33
34
35
36
37
38
39
40
41
42
43
44
45
46
47
48
49
50
51
52
53
54
55
56
57
58
59
60
61
62
63
64
65
66
67
68
69
70
71
72
73
74
75
76
77
78
79
80
81
82
83
84
85
86
87
88
89
90
91
92
93
94
95
96
97
98
99
100
</DataArray>
<DataArray type="Float32" format="ascii">
0
</DataArray>
<DataArray type="Float32" format="ascii">
0
</DataArray>
</Coordinates>
<CellData>
<DataArray Name="h" type="Float32" format="ascii">
0.167153
0.165996
0.164923
0.16413
0.164828
0.164783
0.165419
0.165174
0.164993
0.164203
0.163375
0.162241
0.161069
0.159765
0.158447
0.157094
0.155761
0.154453
0.153203
0.152023
0.150931
0.149938
0.149049
0.148265
0.14758
0.146986
0.146467
0.14601
0.145596
0.145211
0.144838
0.144468
0.144089
0.143696
0.143286
0.142859
0.142417
0.141966
0.141511
0.141061
0.140623
0.140206
0.139819
0.139468
0.139161
0.138903
0.138699
0.13855
0.13846
0.138429
0.138459
0.138548
0.138696
0.138899
0.139156
0.13946
0.139808
0.140191
0.140603
0.141035
0.141478
0.141925
0.142367
0.142797
0.143212
0.143609
0.143987
0.14435
0.144705
0.14506
0.145428
0.145824
0.146263
0.146763
0.147339
0.148005
0.148771
0.149642
0.150619
0.151695
0.15286
0.154098
0.155392
0.156716
0.158057
0.159371
0.160661
0.161839
0.162951
0.163807
0.164558
0.164819
0.165051
0.164569
0.164712
0.164039
0.165364
0.16608
0.167558
0.174315
</DataArray>
<DataArray Name="hu" type="Float32" format="ascii">
-0.0932547
-0.0915792
-0.0887541
-0.0885717
-0.0885529
-0.0896484
-0.0900068
-0.0903222
-0.0897737
-0.0889369
-0.0875672
-0.0860185
-0.0842286
-0.0823608
-0.0803972
-0.0783999
-0.0763594
-0.0742914
-0.0721861
-0.070041
-0.0678473
-0.0655989
-0.0632918
-0.0609243
-0.058499
-0.0560215
-0.0535009
-0.0509483
-0.0483768
-0.0457995
-0.0432297
-0.0406793
-0.0381583
-0.0356744
-0.0332329
-0.0308364
-0.028485
-0.0261769
-0.023908
-0.0216732
-0.0194663
-0.0172808
-0.0151104
-0.0129493
-0.0107928
-0.00863738
-0.00648079
-0.00432207
-0.00216123
1.06609e-06
0.00216352
0.00432481
0.00648436
0.00864215
0.0107993
0.0129581
0.0151221
0.0172962
0.0194863
0.0216987
0.02394
0.0262163
0.028533
0.0308937
0.0333004
0.0357528
0.0382481
0.0407809
0.0433432
0.0459249
0.048514
0.0510972
0.0536611
0.0561927
0.058681
0.0611165
0.0634939
0.0658104
0.0680676
0.0702693
0.0724223
0.0745338
0.0766089
0.0786538
0.0806587
0.0826246
0.0845042
0.0862934
0.0878666
0.0892307
0.0901218
0.0906521
0.0904049
0.0900079
0.0889339
0.0890251
0.0889573
0.092221
0.0927225
0.106273
</DataArray>
</CellData>
</Piece>
</RectilinearGrid>
</VTKFile>
