<?xml version="1.0"?>
<VTKFile type="RectilinearGrid">
<RectilinearGrid WholeExtent="0 100 0 0 0 0">
<Piece Extent="0 100 0 0 0 0">
<Coordinates>
<DataArray type="Float32" format="ascii">
0
10
20
30
40
50
60
70
80
90
100
110
120
130
140
150
160
170
180
190
200
210
220
230
240
250
260
270
280
290
300
310
320
330
340
350
360
370
380
390
400
410
420
430
440
450
460
470
480
490
500
510
520
530
540
550
560
570
580
590
600
610
620
630
640
650
660
670
680
690
700
710
720
730
740
750
760
770
780
790
800
810
820
830
840
850
860
870
880
890
900
910
920
930
940
950
960
970
980
990
1000
</DataArray>
<DataArray type="Float32" format="ascii">
0
</DataArray>
<DataArray type="Float32" format="ascii">
0
</DataArray>
</Coordinates>
<CellData>
<DataArray Name="h" type="Float32" format="ascii">
15
15
15
15
15
15
15
15
15
15
15
15
15
15
15
15
15
15
15
15
15
15
15
15
15
15
15
15
15
15
15
15
15
15
15
15
14.9997
14.9976
14.9895
14.9682
14.9228
14.8411
14.7117
14.5269
14.2843
13.9878
13.6469
13.2749
12.8875
12.5
12.1264
11.7777
11.4617
11.1828
10.9427
10.7405
10.5737
10.4387
10.3312
10.2472
10.1824
10.1331
10.0962
10.0688
10.0488
10.0343
10.0239
10.0165
10.0113
10.0077
10.0052
10.0035
10.0023
10.0016
10.001
10.0007
10.0004
10.0003
10.0002
10.0001
10.0001
10
10
10
10
10
10
10
10
10
10
10
10
10
10
10
10
10
10
10
</DataArray>
<DataArray Name="hu" type="Float32" format="ascii">
0
0
0
0
0
0
0
0
0
0
0
0
0
0
0
0
0
0
0
0
0
0
0
0
0
0
0
0
0
0
0
0
0
0
0
0
-4.59565e-17
-3.66237e-16
-1.51489e-15
-4.35932e-15
-9.83623e-15
-1.85667e-14
-3.05222e-14
-4.49046e-14
-6.02897e-14
-7.49605e-14
-8.72951e-14
-9.6082e-14
-1.00688e-13
-1.01071e-13
-9.76748e-14
-9.12619e-14
-8.27384e-14
-7.3006e-14
-6.286e-14
-5.29322e-14
-4.36745e-14
-3.53685e-14
-2.81521e-14
-2.20524e-14
-1.70191e-14
-1.29532e-14
-9.73103e-15
-7.2215e-15
-5.29775e-15
-3.84445e-15
-2.7613e-15
-1.96411e-15
-1.38424e-15
-9.67047e-16
-6.69976e-16
-4.60496e-16
-3.14131e-16
-2.12744e-16
-1.4309e-16
-9.56142e-17
-6.34889e-17
-4.19053e-17
-2.75017e-17
-1.79482e-17
-1.16513e-17
-7.52313e-18
-4.8367e-18
-3.09509e-18
-1.96613e-18
-1.24253e-18
-7.78703e-19
-4.85437e-19
-3.00825e-19
-1.82444e-19
-1.10336e-19
-6.65429e-20
-4.00238e-20
-2.40102e-20
-1.4367e-20
-8.57596e-21
-5.10933e-21
-3.04727e-21
-1.85186e-21
-1.25416e-21
</DataArray>
</CellData>
</Piece>
</RectilinearGrid>
</VTKFile>
