<?xml version="1.0"?>
<VTKFile type="RectilinearGrid">
<RectilinearGrid WholeExtent="0 100 0 0 0 0">
<Piece Extent="0 100 0 0 0 0">
<Coordinates>
<DataArray type="Float32" format="ascii">
0
1
2
3
4
5
6
7
8
9
10
11
12
13
14
15
16
17
18
19
20
21
22
23
24
25
26
27
28
29
30
31
32
33
34
35
36
37
38
39
40
41
42
43
44
45
46
47
48
49
50
51
52
53
54
55
56
57
58
59
60
61
62
63
64
65
66
67
68
69
70
71
72
73
74
75
76
77
78
79
80
81
82
83
84
85
86
87
88
89
90
91
92
93
94
95
96
97
98
99
100
</DataArray>
<DataArray type="Float32" format="ascii">
0
</DataArray>
<DataArray type="Float32" format="ascii">
0
</DataArray>
</Coordinates>
<CellData>
<DataArray Name="h" type="Float32" format="ascii">
0.115948
0.118071
0.120753
0.123855
0.127391
0.131383
0.135843
0.140758
0.146086
0.151752
0.157651
0.163657
0.169631
0.175446
0.180993
0.186196
0.19101
0.195419
0.199428
0.203062
0.206349
0.209329
0.212026
0.214496
0.216721
0.218824
0.220638
0.222532
0.223917
0.225782
0.226663
0.228663
0.228985
0.231191
0.230994
0.233345
0.232777
0.235114
0.234361
0.236535
0.23572
0.237664
0.236812
0.238544
0.237611
0.239195
0.238122
0.239601
0.238369
0.239739
0.238369
0.239601
0.238122
0.239195
0.237611
0.238544
0.236812
0.237664
0.23572
0.236535
0.234361
0.235114
0.232777
0.233345
0.230994
0.231191
0.228985
0.228663
0.226663
0.225782
0.223917
0.222532
0.220638
0.218824
0.216721
0.214496
0.212026
0.209328
0.206347
0.203058
0.19942
0.195404
0.190986
0.186157
0.180932
0.175358
0.169513
0.163505
0.157467
0.151537
0.145847
0.140501
0.135575
0.131109
0.127114
0.123579
0.120475
0.117771
0.115444
0.113615
</DataArray>
<DataArray Name="hu" type="Float32" format="ascii">
-0.0139167
-0.0164805
-0.0198096
-0.02378
-0.0284577
-0.0339266
-0.040255
-0.0474763
-0.0555688
-0.0644387
-0.0739133
-0.0837472
-0.0936467
-0.103304
-0.112433
-0.120799
-0.128232
-0.134631
-0.139948
-0.144188
-0.147374
-0.149569
-0.150807
-0.151201
-0.150714
-0.14961
-0.147549
-0.145317
-0.141711
-0.138777
-0.133572
-0.130318
-0.12353
-0.120134
-0.111999
-0.108357
-0.0993265
-0.0951641
-0.085733
-0.0808143
-0.0713342
-0.0655925
-0.0562261
-0.0497383
-0.04054
-0.0334343
-0.0244569
-0.0168094
-0.0081711
0
0.0081711
0.0168094
0.0244569
0.0334343
0.04054
0.0497383
0.0562261
0.0655925
0.0713342
0.0808143
0.085733
0.0951641
0.0993265
0.108357
0.111999
0.120134
0.12353
0.130318
0.133572
0.138777
0.141711
0.145317
0.147549
0.14961
0.150714
0.151201
0.150808
0.14957
0.147376
0.144191
0.139954
0.134641
0.12825
0.120829
0.11248
0.103373
0.093744
0.0838759
0.0740752
0.0646328
0.0557915
0.0477223
0.0405183
0.0342015
0.0287396
0.024065
0.0200926
0.0167345
0.0139258
0.0117707
</DataArray>
</CellData>
</Piece>
</RectilinearGrid>
</VTKFile>
