<?xml version="1.0"?>
<VTKFile type="RectilinearGrid">
<RectilinearGrid WholeExtent="0 100 0 0 0 0">
<Piece Extent="0 100 0 0 0 0">
<Coordinates>
<DataArray type="Float32" format="ascii">
0
1
2
3
4
5
6
7
8
9
10
11
12
13
14
15
16
17
18
19
20
21
22
23
24
25
26
27
28
29
30
31
32
33
34
35
36
37
38
39
40
41
42
43
44
45
46
47
48
49
50
51
52
53
54
55
56
57
58
59
60
61
62
63
64
65
66
67
68
69
70
71
72
73
74
75
76
77
78
79
80
81
82
83
84
85
86
87
88
89
90
91
92
93
94
95
96
97
98
99
100
</DataArray>
<DataArray type="Float32" format="ascii">
0
</DataArray>
<DataArray type="Float32" format="ascii">
0
</DataArray>
</Coordinates>
<CellData>
<DataArray Name="h" type="Float32" format="ascii">
0.198137
0.19675
0.1972
0.195267
0.197597
0.194025
0.202525
0.191386
0.221942
0.174298
0.248978
0.133026
0.208708
0.150464
0.163717
0.159854
0.161148
0.162406
0.164579
0.166153
0.167575
0.168357
0.168901
0.169067
0.169061
0.168847
0.168508
0.168048
0.167499
0.166879
0.166203
0.165494
0.164768
0.164047
0.163347
0.162685
0.162068
0.161505
0.161
0.160551
0.160159
0.159821
0.159533
0.159292
0.159095
0.158938
0.158819
0.158735
0.158685
0.158669
0.158685
0.158735
0.158819
0.158938
0.159095
0.159292
0.159533
0.15982
0.160159
0.16055
0.160998
0.161502
0.162063
0.162678
0.163337
0.164033
0.164747
0.165465
0.166165
0.166829
0.167435
0.167966
0.168407
0.168724
0.168916
0.168897
0.168709
0.168143
0.167349
0.165919
0.164358
0.162208
0.160998
0.159783
0.163443
0.151556
0.206876
0.13456
0.247049
0.174356
0.22113
0.191065
0.202055
0.19365
0.19718
0.194875
0.19679
0.19635
0.197756
0.197942
</DataArray>
<DataArray Name="hu" type="Float32" format="ascii">
-0.15437
-0.15137
-0.152339
-0.148187
-0.153215
-0.145578
-0.164207
-0.140356
-0.210551
-0.108099
-0.280989
-0.0384415
-0.18295
-0.069797
-0.0916298
-0.0857508
-0.086413
-0.0882491
-0.0899242
-0.0909895
-0.0907077
-0.0894759
-0.0873584
-0.084757
-0.0817955
-0.0786666
-0.0754405
-0.0721874
-0.0689435
-0.0657238
-0.0625421
-0.0593884
-0.0562606
-0.0531396
-0.0500172
-0.0468769
-0.0437125
-0.0405151
-0.0372835
-0.0340154
-0.0307133
-0.0273789
-0.0240163
-0.020629
-0.017221
-0.0137962
-0.0103584
-0.00691089
-0.00345708
-2.78698e-09
0.00345708
0.00691091
0.0103584
0.0137963
0.0172211
0.0206291
0.0240166
0.0273794
0.030714
0.0340167
0.0372854
0.0405181
0.043717
0.0468835
0.0500267
0.0531531
0.0562791
0.0594135
0.0625751
0.0657666
0.0689975
0.0722546
0.0755218
0.0787641
0.081909
0.0848889
0.0875084
0.0896492
0.0909083
0.0912338
0.090229
0.0886499
0.0869181
0.0864601
0.0919649
0.0725289
0.179945
0.0417141
0.277164
0.109081
0.209716
0.140687
0.164245
0.145831
0.153392
0.148424
0.152546
0.151604
0.154648
0.155055
</DataArray>
</CellData>
</Piece>
</RectilinearGrid>
</VTKFile>
