<?xml version="1.0"?>
<VTKFile type="RectilinearGrid">
<RectilinearGrid WholeExtent="0 100 0 0 0 0">
<Piece Extent="0 100 0 0 0 0">
<Coordinates>
<DataArray type="Float32" format="ascii">
0
1
2
3
4
5
6
7
8
9
10
11
12
13
14
15
16
17
18
19
20
21
22
23
24
25
26
27
28
29
30
31
32
33
34
35
36
37
38
39
40
41
42
43
44
45
46
47
48
49
50
51
52
53
54
55
56
57
58
59
60
61
62
63
64
65
66
67
68
69
70
71
72
73
74
75
76
77
78
79
80
81
82
83
84
85
86
87
88
89
90
91
92
93
94
95
96
97
98
99
100
</DataArray>
<DataArray type="Float32" format="ascii">
0
</DataArray>
<DataArray type="Float32" format="ascii">
0
</DataArray>
</Coordinates>
<CellData>
<DataArray Name="h" type="Float32" format="ascii">
0.164531
0.164963
0.164824
0.166097
0.164569
0.165666
0.163517
0.163843
0.161885
0.16141
0.159736
0.15877
0.157257
0.156046
0.154622
0.153321
0.151957
0.150661
0.149379
0.148161
0.147003
0.145926
0.144935
0.144038
0.143237
0.14253
0.14191
0.141368
0.140894
0.140473
0.140092
0.139737
0.139399
0.139065
0.13873
0.138387
0.138035
0.137673
0.137304
0.136933
0.136564
0.136206
0.135865
0.135549
0.135267
0.135025
0.13483
0.134686
0.134598
0.134568
0.134596
0.134683
0.134824
0.135017
0.135256
0.135534
0.135845
0.13618
0.136532
0.136893
0.137255
0.137614
0.137964
0.138304
0.138633
0.138955
0.139273
0.139597
0.139935
0.140299
0.140703
0.14116
0.141684
0.142286
0.142976
0.14376
0.14464
0.145614
0.146677
0.14782
0.149026
0.150293
0.151585
0.152927
0.154237
0.155623
0.156873
0.158305
0.159381
0.160916
0.161605
0.163426
0.163258
0.165697
0.164074
0.166865
0.164227
0.165931
0.164728
0.163821
</DataArray>
<DataArray Name="hu" type="Float32" format="ascii">
-0.0886871
-0.0887889
-0.0902387
-0.0897977
-0.0906485
-0.0887638
-0.0886084
-0.0862198
-0.0851633
-0.0828417
-0.0812515
-0.0790778
-0.077257
-0.0752012
-0.0732991
-0.0713168
-0.0693962
-0.0674471
-0.065511
-0.0635518
-0.061574
-0.0595618
-0.0575099
-0.0554122
-0.0532653
-0.0510697
-0.0488277
-0.0465458
-0.0442314
-0.0418948
-0.0395467
-0.0371982
-0.0348604
-0.0325431
-0.0302548
-0.028002
-0.0257897
-0.0236201
-0.0214941
-0.0194104
-0.0173662
-0.0153576
-0.0133799
-0.0114279
-0.00949652
-0.00758079
-0.00567644
-0.00377973
-0.0018876
2.6266e-06
0.00189312
0.00378613
0.00568425
0.00759076
0.00950927
0.0114443
0.0134008
0.0153838
0.0173987
0.0194501
0.021542
0.0236769
0.0258561
0.0280788
0.0303422
0.0326417
0.0349703
0.0373195
0.0396793
0.0420389
0.0443866
0.046712
0.0490048
0.0512574
0.0534631
0.0556201
0.0577269
0.0597879
0.0618077
0.063794
0.0657582
0.0677032
0.0696527
0.071586
0.0735592
0.0754865
0.0775118
0.0793894
0.0814829
0.0831742
0.0853437
0.0865072
0.0887914
0.088759
0.0910562
0.0893354
0.0908432
0.088286
0.0895438
0.0863445
</DataArray>
</CellData>
</Piece>
</RectilinearGrid>
</VTKFile>
