<?xml version="1.0"?>
<VTKFile type="RectilinearGrid">
<RectilinearGrid WholeExtent="0 100 0 0 0 0">
<Piece Extent="0 100 0 0 0 0">
<Coordinates>
<DataArray type="Float32" format="ascii">
0
1
2
3
4
5
6
7
8
9
10
11
12
13
14
15
16
17
18
19
20
21
22
23
24
25
26
27
28
29
30
31
32
33
34
35
36
37
38
39
40
41
42
43
44
45
46
47
48
49
50
51
52
53
54
55
56
57
58
59
60
61
62
63
64
65
66
67
68
69
70
71
72
73
74
75
76
77
78
79
80
81
82
83
84
85
86
87
88
89
90
91
92
93
94
95
96
97
98
99
100
</DataArray>
<DataArray type="Float32" format="ascii">
0
</DataArray>
<DataArray type="Float32" format="ascii">
0
</DataArray>
</Coordinates>
<CellData>
<DataArray Name="h" type="Float32" format="ascii">
0.172135
0.168109
0.166029
0.165035
0.164221
0.164642
0.164806
0.165222
0.165106
0.164829
0.164126
0.163248
0.162141
0.160941
0.159648
0.158334
0.157014
0.155729
0.154498
0.153345
0.152286
0.15133
0.150484
0.149743
0.149101
0.148544
0.148056
0.147621
0.147221
0.146838
0.14646
0.146075
0.145675
0.145255
0.144816
0.144359
0.143887
0.143408
0.142928
0.142457
0.142003
0.141574
0.141179
0.140825
0.140517
0.14026
0.140056
0.13991
0.139821
0.139791
0.139821
0.139909
0.140054
0.140256
0.140512
0.140818
0.14117
0.141562
0.141986
0.142435
0.1429
0.143372
0.143843
0.144304
0.14475
0.145176
0.145581
0.145965
0.146335
0.146696
0.147061
0.147443
0.147859
0.148328
0.148866
0.149489
0.150212
0.15104
0.151978
0.153021
0.154159
0.155376
0.15665
0.157957
0.159264
0.160546
0.161744
0.162841
0.163729
0.16442
0.164732
0.16483
0.1645
0.164365
0.164105
0.165073
0.166052
0.168713
0.173421
0.171017
</DataArray>
<DataArray Name="hu" type="Float32" format="ascii">
-0.102732
-0.0948314
-0.0918137
-0.0890462
-0.0885116
-0.0885676
-0.0894754
-0.0900523
-0.0903759
-0.0900041
-0.0891903
-0.087912
-0.0863723
-0.0846104
-0.0827274
-0.0807459
-0.0787025
-0.0766018
-0.0744497
-0.0722421
-0.0699753
-0.0676451
-0.0652494
-0.0627896
-0.0602701
-0.0576992
-0.0550879
-0.0524494
-0.0497977
-0.0471471
-0.0445107
-0.0419002
-0.0393246
-0.0367904
-0.0343015
-0.0318587
-0.0294609
-0.0271043
-0.0247838
-0.0224931
-0.0202252
-0.0179731
-0.0157305
-0.0134917
-0.0112526
-0.00901035
-0.00676353
-0.00451203
-0.00225677
7.76496e-07
0.00225842
0.00451407
0.00676622
0.00901402
0.0112577
0.0134987
0.0157399
0.0179858
0.0202418
0.0225146
0.0248113
0.0271386
0.0295032
0.03191
0.0343626
0.0368623
0.0394077
0.0419951
0.0446177
0.0472662
0.0499288
0.0525924
0.0552425
0.0578651
0.0604468
0.0629768
0.0654467
0.067852
0.0701911
0.0724664
0.0746816
0.0768411
0.078948
0.0809986
0.0829852
0.0848772
0.0866446
0.0882006
0.0894875
0.0903368
0.0907243
0.0904747
0.0899121
0.0890766
0.0890035
0.0895446
0.0923895
0.0951856
0.105268
0.0995317
</DataArray>
</CellData>
</Piece>
</RectilinearGrid>
</VTKFile>
