<?xml version="1.0"?>
<VTKFile type="RectilinearGrid">
<RectilinearGrid WholeExtent="0 100 0 0 0 0">
<Piece Extent="0 100 0 0 0 0">
<Coordinates>
<DataArray type="Float32" format="ascii">
0
1
2
3
4
5
6
7
8
9
10
11
12
13
14
15
16
17
18
19
20
21
22
23
24
25
26
27
28
29
30
31
32
33
34
35
36
37
38
39
40
41
42
43
44
45
46
47
48
49
50
51
52
53
54
55
56
57
58
59
60
61
62
63
64
65
66
67
68
69
70
71
72
73
74
75
76
77
78
79
80
81
82
83
84
85
86
87
88
89
90
91
92
93
94
95
96
97
98
99
100
</DataArray>
<DataArray type="Float32" format="ascii">
0
</DataArray>
<DataArray type="Float32" format="ascii">
0
</DataArray>
</Coordinates>
<CellData>
<DataArray Name="h" type="Float32" format="ascii">
0.106375
0.107065
0.107955
0.108999
0.110213
0.11163
0.113281
0.115198
0.117402
0.11991
0.122736
0.125889
0.129384
0.13323
0.137438
0.142012
0.146948
0.152239
0.157866
0.163804
0.170018
0.176469
0.18311
0.189889
0.196753
0.203648
0.210522
0.217324
0.224007
0.230531
0.236858
0.242958
0.248802
0.254372
0.259647
0.264616
0.269263
0.273588
0.27757
0.281226
0.28452
0.287495
0.290091
0.292374
0.294273
0.295857
0.29706
0.297942
0.298452
0.298635
0.298452
0.297942
0.29706
0.295857
0.294273
0.292374
0.290091
0.287495
0.28452
0.281226
0.27757
0.273588
0.269263
0.264616
0.259647
0.254372
0.248802
0.242958
0.236858
0.230531
0.224007
0.217324
0.210522
0.203648
0.196753
0.189889
0.18311
0.176469
0.170018
0.163804
0.157866
0.152239
0.146948
0.142012
0.137438
0.13323
0.129383
0.125887
0.122729
0.119893
0.117364
0.115127
0.113169
0.111472
0.110014
0.108767
0.1077
0.106787
0.10601
0.105411
</DataArray>
<DataArray Name="hu" type="Float32" format="ascii">
-0.00316044
-0.00388535
-0.00481936
-0.00589787
-0.00711651
-0.00847845
-0.00999029
-0.0116653
-0.0135254
-0.0156003
-0.0179233
-0.0205269
-0.0234396
-0.0266847
-0.0302786
-0.0342302
-0.0385385
-0.0431907
-0.0481595
-0.0534022
-0.0588592
-0.0644546
-0.0700976
-0.0756852
-0.0811059
-0.0862439
-0.0909842
-0.0952169
-0.0988413
-0.101769
-0.103927
-0.105257
-0.105718
-0.105286
-0.10395
-0.101716
-0.0985964
-0.0946298
-0.0898311
-0.0842851
-0.0779845
-0.0710692
-0.0635033
-0.0554629
-0.0469105
-0.038016
-0.0287761
-0.0193236
-0.00969978
0
0.00969978
0.0193236
0.0287761
0.038016
0.0469105
0.0554629
0.0635033
0.0710692
0.0779845
0.0842851
0.0898311
0.0946298
0.0985964
0.101716
0.10395
0.105286
0.105718
0.105257
0.103927
0.101769
0.0988413
0.0952169
0.0909842
0.0862439
0.0811059
0.0756852
0.0700976
0.0644546
0.0588592
0.0534022
0.0481595
0.0431907
0.0385385
0.0342302
0.0302786
0.0266847
0.02344
0.0205288
0.0179298
0.0156176
0.0135629
0.0117344
0.0101006
0.00863402
0.00731423
0.00612865
0.00507062
0.00413659
0.00332962
0.00270489
</DataArray>
</CellData>
</Piece>
</RectilinearGrid>
</VTKFile>
