<?xml version="1.0"?>
<VTKFile type="RectilinearGrid">
<RectilinearGrid WholeExtent="0 100 0 0 0 0">
<Piece Extent="0 100 0 0 0 0">
<Coordinates>
<DataArray type="Float32" format="ascii">
0
1
2
3
4
5
6
7
8
9
10
11
12
13
14
15
16
17
18
19
20
21
22
23
24
25
26
27
28
29
30
31
32
33
34
35
36
37
38
39
40
41
42
43
44
45
46
47
48
49
50
51
52
53
54
55
56
57
58
59
60
61
62
63
64
65
66
67
68
69
70
71
72
73
74
75
76
77
78
79
80
81
82
83
84
85
86
87
88
89
90
91
92
93
94
95
96
97
98
99
100
</DataArray>
<DataArray type="Float32" format="ascii">
0
</DataArray>
<DataArray type="Float32" format="ascii">
0
</DataArray>
</Coordinates>
<CellData>
<DataArray Name="h" type="Float32" format="ascii">
0.150421
0.158016
0.166096
0.173708
0.180413
0.18601
0.190497
0.193988
0.196654
0.198639
0.200112
0.201125
0.201897
0.202231
0.202756
0.202357
0.203326
0.201572
0.204197
0.199806
0.205766
0.197098
0.208057
0.193777
0.210666
0.190483
0.212902
0.18797
0.214153
0.186724
0.214259
0.186668
0.213564
0.187295
0.212607
0.188058
0.211778
0.188681
0.211159
0.189193
0.210621
0.189736
0.210039
0.190367
0.20942
0.190995
0.208886
0.191458
0.208577
0.191628
0.208577
0.191458
0.208886
0.190995
0.20942
0.190367
0.210039
0.189736
0.210621
0.189193
0.211159
0.188681
0.211778
0.188058
0.212607
0.187295
0.213564
0.186668
0.214259
0.186724
0.214152
0.187969
0.212899
0.190478
0.210658
0.193765
0.208037
0.197069
0.205723
0.199748
0.204118
0.20147
0.203195
0.202196
0.202564
0.202008
0.201645
0.200846
0.199812
0.198322
0.196327
0.193657
0.190167
0.185687
0.180101
0.173409
0.165808
0.157703
0.149652
0.142547
</DataArray>
<DataArray Name="hu" type="Float32" format="ascii">
-0.0630018
-0.0758299
-0.0902075
-0.104418
-0.117456
-0.128698
-0.137927
-0.145213
-0.150793
-0.154894
-0.157817
-0.159624
-0.160756
-0.160746
-0.160942
-0.158885
-0.15957
-0.154064
-0.157791
-0.146127
-0.156386
-0.135282
-0.155352
-0.122414
-0.153779
-0.108997
-0.150219
-0.0966103
-0.143516
-0.0861892
-0.133584
-0.0775527
-0.121369
-0.0697373
-0.108102
-0.0617744
-0.0945866
-0.0532508
-0.0809778
-0.0443202
-0.0670601
-0.0353267
-0.0526558
-0.0264554
-0.0378175
-0.0176686
-0.0227383
-0.00886065
-0.00758269
0
0.00758269
0.00886065
0.0227383
0.0176686
0.0378175
0.0264554
0.0526558
0.0353267
0.0670601
0.0443202
0.0809778
0.0532508
0.0945866
0.0617744
0.108102
0.0697373
0.121369
0.0775528
0.133584
0.0861896
0.143516
0.0966116
0.150221
0.109
0.153784
0.122424
0.155363
0.135303
0.156412
0.146166
0.15784
0.154129
0.15965
0.158984
0.16106
0.160883
0.160913
0.1598
0.158013
0.155109
0.151027
0.145467
0.138202
0.128996
0.117777
0.10476
0.0905607
0.0761333
0.0625505
0.051206
</DataArray>
</CellData>
</Piece>
</RectilinearGrid>
</VTKFile>
