<?xml version="1.0"?>
<VTKFile type="RectilinearGrid">
<RectilinearGrid WholeExtent="0 100 0 0 0 0">
<Piece Extent="0 100 0 0 0 0">
<Coordinates>
<DataArray type="Float32" format="ascii">
0
1
2
3
4
5
6
7
8
9
10
11
12
13
14
15
16
17
18
19
20
21
22
23
24
25
26
27
28
29
30
31
32
33
34
35
36
37
38
39
40
41
42
43
44
45
46
47
48
49
50
51
52
53
54
55
56
57
58
59
60
61
62
63
64
65
66
67
68
69
70
71
72
73
74
75
76
77
78
79
80
81
82
83
84
85
86
87
88
89
90
91
92
93
94
95
96
97
98
99
100
</DataArray>
<DataArray type="Float32" format="ascii">
0
</DataArray>
<DataArray type="Float32" format="ascii">
0
</DataArray>
</Coordinates>
<CellData>
<DataArray Name="h" type="Float32" format="ascii">
0.183451
0.174974
0.171955
0.168645
0.166128
0.164845
0.164176
0.164309
0.164576
0.164847
0.164792
0.164429
0.16373
0.162801
0.161699
0.160507
0.159278
0.158065
0.156904
0.155824
0.154844
0.153974
0.153216
0.152561
0.151998
0.151508
0.151072
0.150669
0.150281
0.149892
0.149491
0.149068
0.148621
0.148148
0.147652
0.147139
0.146615
0.146089
0.145571
0.14507
0.144595
0.144155
0.143755
0.143402
0.1431
0.14285
0.142655
0.142515
0.142431
0.142403
0.14243
0.142514
0.142653
0.142848
0.143097
0.143398
0.143749
0.144146
0.144584
0.145055
0.14555
0.146062
0.14658
0.147095
0.147598
0.148082
0.148541
0.148974
0.14938
0.149764
0.150135
0.150504
0.150888
0.151305
0.151776
0.152319
0.152954
0.153694
0.154546
0.155508
0.156573
0.15772
0.158921
0.160138
0.161322
0.162417
0.163346
0.164044
0.164422
0.164487
0.164252
0.164001
0.163932
0.164603
0.165993
0.168633
0.172093
0.175757
0.185778
0.173049
</DataArray>
<DataArray Name="hu" type="Float32" format="ascii">
-0.124962
-0.107817
-0.102845
-0.0958172
-0.0916397
-0.0890603
-0.0883442
-0.0886542
-0.0895584
-0.0903165
-0.0906558
-0.0903847
-0.089579
-0.0883244
-0.08675
-0.0849394
-0.0829615
-0.080854
-0.0786406
-0.0763327
-0.0739363
-0.071456
-0.0688965
-0.0662657
-0.0635738
-0.060834
-0.0580614
-0.0552723
-0.0524824
-0.0497066
-0.0469575
-0.0442448
-0.0415754
-0.0389531
-0.0363784
-0.0338496
-0.0313622
-0.0289103
-0.0264865
-0.024083
-0.0216918
-0.019306
-0.0169193
-0.0145273
-0.0121271
-0.00971718
-0.0072978
-0.00487019
-0.00243657
4.07487e-07
0.00243745
0.00487132
0.00729933
0.00971937
0.0121302
0.0145317
0.0169255
0.0193145
0.0217034
0.0240984
0.0265067
0.0289363
0.0313951
0.0338904
0.0364284
0.0390131
0.0416464
0.0443274
0.0470523
0.0498139
0.0526022
0.0554044
0.0582057
0.0609901
0.0637411
0.066444
0.0690852
0.0716545
0.0741442
0.0765495
0.0788657
0.0810873
0.0832026
0.0851891
0.0870086
0.0885957
0.0898652
0.0906965
0.0909981
0.0907111
0.0900056
0.0891871
0.088939
0.0897696
0.0923938
0.0966781
0.103597
0.109284
0.130026
0.103448
</DataArray>
</CellData>
</Piece>
</RectilinearGrid>
</VTKFile>
