<?xml version="1.0"?>
<VTKFile type="RectilinearGrid">
<RectilinearGrid WholeExtent="0 100 0 0 0 0">
<Piece Extent="0 100 0 0 0 0">
<Coordinates>
<DataArray type="Float32" format="ascii">
0
1
2
3
4
5
6
7
8
9
10
11
12
13
14
15
16
17
18
19
20
21
22
23
24
25
26
27
28
29
30
31
32
33
34
35
36
37
38
39
40
41
42
43
44
45
46
47
48
49
50
51
52
53
54
55
56
57
58
59
60
61
62
63
64
65
66
67
68
69
70
71
72
73
74
75
76
77
78
79
80
81
82
83
84
85
86
87
88
89
90
91
92
93
94
95
96
97
98
99
100
</DataArray>
<DataArray type="Float32" format="ascii">
0
</DataArray>
<DataArray type="Float32" format="ascii">
0
</DataArray>
</Coordinates>
<CellData>
<DataArray Name="h" type="Float32" format="ascii">
0.178311
0.184649
0.189879
0.193784
0.196619
0.198611
0.200002
0.200838
0.201434
0.20143
0.201817
0.200745
0.201969
0.198677
0.202785
0.194929
0.205042
0.189293
0.209142
0.181852
0.214826
0.173273
0.220872
0.165192
0.22525
0.159874
0.226283
0.158664
0.223977
0.160755
0.219923
0.164055
0.215841
0.166987
0.21252
0.169172
0.209888
0.170937
0.207592
0.172647
0.205429
0.174387
0.203445
0.175998
0.201804
0.177269
0.200651
0.178065
0.200062
0.178334
0.200062
0.178065
0.200651
0.177269
0.201804
0.175998
0.203445
0.174387
0.205429
0.172647
0.207592
0.170937
0.209888
0.169172
0.21252
0.166987
0.215841
0.164055
0.219921
0.160754
0.223974
0.15866
0.226273
0.159865
0.225228
0.16517
0.220827
0.173229
0.214749
0.181771
0.209021
0.189162
0.204868
0.194737
0.202556
0.198426
0.201689
0.200444
0.201496
0.201095
0.201088
0.200485
0.199646
0.198256
0.196269
0.193442
0.189546
0.184306
0.177567
0.169864
</DataArray>
<DataArray Name="hu" type="Float32" format="ascii">
-0.113342
-0.126003
-0.136768
-0.144984
-0.151034
-0.155317
-0.158304
-0.160063
-0.161262
-0.161088
-0.1617
-0.15901
-0.16125
-0.153468
-0.161679
-0.143756
-0.164472
-0.129528
-0.170287
-0.111193
-0.178304
-0.0903482
-0.185543
-0.0702496
-0.18744
-0.0550001
-0.180776
-0.0468935
-0.166453
-0.0444722
-0.148479
-0.0439746
-0.130472
-0.0424818
-0.11378
-0.039241
-0.0980642
-0.0348278
-0.0826052
-0.0299365
-0.0670763
-0.0248121
-0.0515932
-0.0193299
-0.0364025
-0.0133267
-0.0216188
-0.00681591
-0.00716494
0
0.00716494
0.00681591
0.0216188
0.0133267
0.0364025
0.0193299
0.0515932
0.0248121
0.0670763
0.0299365
0.0826052
0.0348278
0.0980642
0.039241
0.11378
0.042482
0.130472
0.0439754
0.148479
0.0444747
0.166454
0.0469007
0.180777
0.0550165
0.187444
0.070281
0.185553
0.0903997
0.17833
0.111269
0.170341
0.12963
0.164561
0.143885
0.161807
0.153624
0.161415
0.159191
0.161893
0.161294
0.161479
0.160291
0.158544
0.155572
0.151309
0.145283
0.137095
0.126317
0.112873
0.0980979
</DataArray>
</CellData>
</Piece>
</RectilinearGrid>
</VTKFile>
