<?xml version="1.0"?>
<VTKFile type="RectilinearGrid">
<RectilinearGrid WholeExtent="0 100 0 0 0 0">
<Piece Extent="0 100 0 0 0 0">
<Coordinates>
<DataArray type="Float32" format="ascii">
0
10
20
30
40
50
60
70
80
90
100
110
120
130
140
150
160
170
180
190
200
210
220
230
240
250
260
270
280
290
300
310
320
330
340
350
360
370
380
390
400
410
420
430
440
450
460
470
480
490
500
510
520
530
540
550
560
570
580
590
600
610
620
630
640
650
660
670
680
690
700
710
720
730
740
750
760
770
780
790
800
810
820
830
840
850
860
870
880
890
900
910
920
930
940
950
960
970
980
990
1000
</DataArray>
<DataArray type="Float32" format="ascii">
0
</DataArray>
<DataArray type="Float32" format="ascii">
0
</DataArray>
</Coordinates>
<CellData>
<DataArray Name="h" type="Float32" format="ascii">
15
15
15
15
15
15
15
15
15
15
15
15
15
15
15
15
15
15
15
15
15
15
15
15
15
15
15
15
15
15
15
15
15
15
15
14.9998
14.9987
14.9941
14.9812
14.952
14.8965
14.8041
14.6655
14.4749
14.2314
13.9391
13.607
13.2472
12.8736
12.5
12.1388
11.8003
11.4915
11.2171
10.9788
10.7763
10.6075
10.4694
10.3583
10.2703
10.2017
10.149
10.1089
10.0788
10.0566
10.0402
10.0284
10.0199
10.0138
10.0095
10.0065
10.0044
10.003
10.002
10.0013
10.0009
10.0006
10.0004
10.0003
10.0002
10.0001
10.0001
10
10
10
10
10
10
10
10
10
10
10
10
10
10
10
10
10
10
</DataArray>
<DataArray Name="hu" type="Float32" format="ascii">
0
0
0
0
0
0
0
0
0
0
0
0
0
0
0
0
0
0
0
0
0
0
0
0
0
0
0
0
0
0
0
0
0
0
0
-2.466e-17
-2.08898e-16
-9.17773e-16
-2.80018e-15
-6.6849e-15
-1.33216e-14
-2.30706e-14
-3.56821e-14
-5.02617e-14
-6.54338e-14
-7.9634e-14
-9.14271e-14
-9.97578e-14
-1.04082e-13
-1.04374e-13
-1.01038e-13
-9.47677e-14
-8.6395e-14
-7.67626e-14
-6.66281e-14
-5.66093e-14
-4.71629e-14
-3.85883e-14
-3.10477e-14
-2.45942e-14
-1.92005e-14
-1.47867e-14
-1.12426e-14
-8.44552e-15
-6.27249e-15
-4.60868e-15
-3.35183e-15
-2.41427e-15
-1.72303e-15
-1.21898e-15
-8.55214e-16
-5.9525e-16
-4.11174e-16
-2.81967e-16
-1.92027e-16
-1.29911e-16
-8.73293e-17
-5.83512e-17
-3.87621e-17
-2.56066e-17
-1.68219e-17
-1.09927e-17
-7.15129e-18
-4.62612e-18
-2.9766e-18
-1.90621e-18
-1.21411e-18
-7.66605e-19
-4.8138e-19
-3.00428e-19
-1.83485e-19
-1.11755e-19
-6.78824e-20
-4.11247e-20
-2.48503e-20
-1.49798e-20
-9.01355e-21
-5.43271e-21
-3.34343e-21
-2.2988e-21
</DataArray>
</CellData>
</Piece>
</RectilinearGrid>
</VTKFile>
