<?xml version="1.0"?>
<VTKFile type="RectilinearGrid">
<RectilinearGrid WholeExtent="0 100 0 0 0 0">
<Piece Extent="0 100 0 0 0 0">
<Coordinates>
<DataArray type="Float32" format="ascii">
0
1
2
3
4
5
6
7
8
9
10
11
12
13
14
15
16
17
18
19
20
21
22
23
24
25
26
27
28
29
30
31
32
33
34
35
36
37
38
39
40
41
42
43
44
45
46
47
48
49
50
51
52
53
54
55
56
57
58
59
60
61
62
63
64
65
66
67
68
69
70
71
72
73
74
75
76
77
78
79
80
81
82
83
84
85
86
87
88
89
90
91
92
93
94
95
96
97
98
99
100
</DataArray>
<DataArray type="Float32" format="ascii">
0
</DataArray>
<DataArray type="Float32" format="ascii">
0
</DataArray>
</Coordinates>
<CellData>
<DataArray Name="h" type="Float32" format="ascii">
0.200369
0.199127
0.199315
0.197324
0.198324
0.19525
0.19819
0.192868
0.20069
0.189143
0.210375
0.178806
0.233775
0.147972
0.250997
0.11325
0.214194
0.135713
0.170208
0.161695
0.167302
0.169174
0.17161
0.172648
0.17341
0.173527
0.173413
0.173015
0.172472
0.17181
0.171083
0.170329
0.169583
0.16886
0.168192
0.167567
0.167016
0.166511
0.166079
0.165689
0.165363
0.165072
0.164836
0.164628
0.164468
0.164331
0.164235
0.16416
0.164123
0.164104
0.164123
0.16416
0.164235
0.164331
0.164468
0.164628
0.164836
0.165072
0.165363
0.165688
0.166078
0.16651
0.167014
0.167564
0.168187
0.168853
0.169572
0.170312
0.17106
0.171777
0.172428
0.172956
0.17334
0.17343
0.173297
0.172508
0.171462
0.16901
0.167149
0.161639
0.169875
0.13629
0.213176
0.11405
0.249843
0.148153
0.233038
0.178609
0.209891
0.188831
0.200275
0.192513
0.197788
0.194872
0.197922
0.196932
0.19891
0.198726
0.199978
0.200056
</DataArray>
<DataArray Name="hu" type="Float32" format="ascii">
-0.159244
-0.156525
-0.156932
-0.152604
-0.154761
-0.148136
-0.15447
-0.143108
-0.160072
-0.135626
-0.182721
-0.116326
-0.241499
-0.0636906
-0.284293
-0.0119311
-0.190813
-0.0441127
-0.0971904
-0.0810751
-0.0867608
-0.087622
-0.0885213
-0.087467
-0.0859314
-0.0833501
-0.0806847
-0.0775187
-0.0744471
-0.0711427
-0.06795
-0.0646312
-0.0613777
-0.0580321
-0.0547004
-0.0512886
-0.0478583
-0.0443582
-0.0408274
-0.0372397
-0.0336218
-0.0299609
-0.0262762
-0.0225615
-0.0188306
-0.0150806
-0.0113212
-0.00755139
-0.00377747
0
0.00377747
0.00755139
0.0113212
0.0150806
0.0188306
0.0225615
0.0262763
0.0299611
0.0336221
0.0372402
0.0408282
0.0443595
0.0478603
0.0512917
0.0547051
0.0580393
0.0613879
0.0646461
0.0679703
0.0711711
0.0744837
0.0775682
0.0807454
0.0834307
0.0860269
0.0875954
0.0886739
0.0878473
0.0870188
0.0816226
0.0972186
0.0456804
0.189454
0.0136698
0.28238
0.0646612
0.240674
0.116772
0.182619
0.135921
0.160184
0.143363
0.154647
0.148378
0.154965
0.15284
0.15715
0.156761
0.159506
0.159681
</DataArray>
</CellData>
</Piece>
</RectilinearGrid>
</VTKFile>
