<?xml version="1.0"?>
<VTKFile type="RectilinearGrid">
<RectilinearGrid WholeExtent="0 100 0 0 0 0">
<Piece Extent="0 100 0 0 0 0">
<Coordinates>
<DataArray type="Float32" format="ascii">
0
1
2
3
4
5
6
7
8
9
10
11
12
13
14
15
16
17
18
19
20
21
22
23
24
25
26
27
28
29
30
31
32
33
34
35
36
37
38
39
40
41
42
43
44
45
46
47
48
49
50
51
52
53
54
55
56
57
58
59
60
61
62
63
64
65
66
67
68
69
70
71
72
73
74
75
76
77
78
79
80
81
82
83
84
85
86
87
88
89
90
91
92
93
94
95
96
97
98
99
100
</DataArray>
<DataArray type="Float32" format="ascii">
0
</DataArray>
<DataArray type="Float32" format="ascii">
0
</DataArray>
</Coordinates>
<CellData>
<DataArray Name="h" type="Float32" format="ascii">
0.103493
0.10391
0.10457
0.105399
0.106355
0.107455
0.108714
0.110149
0.111778
0.11362
0.115694
0.118019
0.120614
0.123499
0.126693
0.130211
0.13407
0.138285
0.142867
0.147824
0.153162
0.158883
0.164984
0.171459
0.178294
0.185472
0.192969
0.200758
0.208803
0.217065
0.225497
0.234049
0.242665
0.251286
0.259849
0.268288
0.276536
0.284523
0.292181
0.299443
0.306243
0.312516
0.318205
0.323255
0.327616
0.331245
0.334107
0.336173
0.337422
0.33784
0.337422
0.336173
0.334107
0.331245
0.327616
0.323255
0.318205
0.312516
0.306243
0.299443
0.292181
0.284523
0.276536
0.268288
0.259849
0.251286
0.242665
0.234049
0.225497
0.217065
0.208803
0.200758
0.192969
0.185472
0.178294
0.171459
0.164984
0.158883
0.153162
0.147824
0.142867
0.138285
0.13407
0.130211
0.126693
0.123499
0.120614
0.118019
0.115694
0.11362
0.111778
0.110149
0.108714
0.107455
0.106355
0.105399
0.10457
0.103854
0.103286
0.102928
</DataArray>
<DataArray Name="hu" type="Float32" format="ascii">
-0.000242495
-0.000453324
-0.000591983
-0.000690118
-0.000802178
-0.000929804
-0.00107478
-0.00123906
-0.00142476
-0.00163416
-0.00186969
-0.00213395
-0.00242964
-0.00275951
-0.00312638
-0.00353296
-0.00398179
-0.00447512
-0.00501473
-0.00560173
-0.00623639
-0.00691786
-0.00764397
-0.00841094
-0.00921323
-0.0100432
-0.0108912
-0.011745
-0.0125905
-0.0134109
-0.0141879
-0.0149012
-0.0155292
-0.0160498
-0.0164407
-0.0166803
-0.0167486
-0.016628
-0.016304
-0.0157659
-0.0150081
-0.0140298
-0.0128358
-0.0114369
-0.00984936
-0.00809495
-0.00620051
-0.00419699
-0.0021185
0
0.0021185
0.00419699
0.00620051
0.00809495
0.00984936
0.0114369
0.0128358
0.0140298
0.0150081
0.0157659
0.016304
0.016628
0.0167486
0.0166803
0.0164407
0.0160498
0.0155292
0.0149012
0.0141879
0.0134109
0.0125905
0.011745
0.0108912
0.0100432
0.00921323
0.00841094
0.00764397
0.00691786
0.00623639
0.00560173
0.00501473
0.00447512
0.00398179
0.00353296
0.00312638
0.00275951
0.00242964
0.00213395
0.00186969
0.00163416
0.00142476
0.00123906
0.00107478
0.000929804
0.000802178
0.000690118
0.000591983
0.000506278
0.000386856
0.000206516
</DataArray>
</CellData>
</Piece>
</RectilinearGrid>
</VTKFile>
