<?xml version="1.0"?>
<VTKFile type="RectilinearGrid">
<RectilinearGrid WholeExtent="0 100 0 0 0 0">
<Piece Extent="0 100 0 0 0 0">
<Coordinates>
<DataArray type="Float32" format="ascii">
0
1
2
3
4
5
6
7
8
9
10
11
12
13
14
15
16
17
18
19
20
21
22
23
24
25
26
27
28
29
30
31
32
33
34
35
36
37
38
39
40
41
42
43
44
45
46
47
48
49
50
51
52
53
54
55
56
57
58
59
60
61
62
63
64
65
66
67
68
69
70
71
72
73
74
75
76
77
78
79
80
81
82
83
84
85
86
87
88
89
90
91
92
93
94
95
96
97
98
99
100
</DataArray>
<DataArray type="Float32" format="ascii">
0
</DataArray>
<DataArray type="Float32" format="ascii">
0
</DataArray>
</Coordinates>
<CellData>
<DataArray Name="h" type="Float32" format="ascii">
0.199326
0.19931
0.197648
0.198199
0.19575
0.197763
0.193725
0.199557
0.190945
0.207849
0.18315
0.230637
0.155495
0.250482
0.117942
0.212119
0.13889
0.166852
0.160826
0.165055
0.167142
0.169721
0.171055
0.17206
0.172397
0.172459
0.172216
0.171796
0.171237
0.170573
0.169858
0.169105
0.16836
0.167634
0.166949
0.166316
0.165738
0.165224
0.164764
0.164366
0.164015
0.163719
0.163464
0.163254
0.163078
0.162943
0.162835
0.162764
0.162718
0.162705
0.162718
0.162764
0.162835
0.162943
0.163078
0.163254
0.163463
0.163719
0.164015
0.164365
0.164763
0.165222
0.165736
0.166312
0.166943
0.167625
0.168346
0.169086
0.16983
0.170536
0.171187
0.171732
0.172134
0.172359
0.172271
0.171917
0.170886
0.169547
0.16696
0.164898
0.160765
0.166517
0.139599
0.210913
0.118906
0.249149
0.155658
0.229867
0.182918
0.207365
0.190612
0.199141
0.193357
0.197358
0.195364
0.197793
0.197251
0.198903
0.198928
0.19999
</DataArray>
<DataArray Name="hu" type="Float32" format="ascii">
-0.156961
-0.156923
-0.15331
-0.154497
-0.149214
-0.153549
-0.144912
-0.157541
-0.139253
-0.176673
-0.12444
-0.233371
-0.0759356
-0.284392
-0.0184772
-0.18848
-0.0508238
-0.0938166
-0.0829811
-0.0864308
-0.0881208
-0.0891016
-0.0886719
-0.087278
-0.0850152
-0.0823789
-0.0793448
-0.0762498
-0.0729981
-0.0697908
-0.0665223
-0.0633007
-0.0600368
-0.0567851
-0.0534843
-0.0501639
-0.0467889
-0.0433784
-0.0399164
-0.036417
-0.0328748
-0.0293012
-0.0256956
-0.022067
-0.0184167
-0.0147516
-0.0110734
-0.00738727
-0.00369498
0
0.00369498
0.00738726
0.0110734
0.0147516
0.0184167
0.0220671
0.0256957
0.0293014
0.0328752
0.0364176
0.0399173
0.04338
0.0467914
0.0501676
0.0534901
0.0567935
0.0600489
0.0633176
0.0665459
0.0698218
0.0730397
0.0763021
0.0794125
0.0824605
0.0851188
0.0874
0.0888288
0.0892912
0.0883863
0.0867569
0.0835735
0.0939076
0.0526685
0.186767
0.0205427
0.282054
0.0769414
0.232513
0.124857
0.176607
0.139534
0.157673
0.145161
0.153736
0.149453
0.154706
0.153545
0.157145
0.157205
0.159534
</DataArray>
</CellData>
</Piece>
</RectilinearGrid>
</VTKFile>
