<?xml version="1.0"?>
<VTKFile type="RectilinearGrid">
<RectilinearGrid WholeExtent="0 100 0 0 0 0">
<Piece Extent="0 100 0 0 0 0">
<Coordinates>
<DataArray type="Float32" format="ascii">
0
1
2
3
4
5
6
7
8
9
10
11
12
13
14
15
16
17
18
19
20
21
22
23
24
25
26
27
28
29
30
31
32
33
34
35
36
37
38
39
40
41
42
43
44
45
46
47
48
49
50
51
52
53
54
55
56
57
58
59
60
61
62
63
64
65
66
67
68
69
70
71
72
73
74
75
76
77
78
79
80
81
82
83
84
85
86
87
88
89
90
91
92
93
94
95
96
97
98
99
100
</DataArray>
<DataArray type="Float32" format="ascii">
0
</DataArray>
<DataArray type="Float32" format="ascii">
0
</DataArray>
</Coordinates>
<CellData>
<DataArray Name="h" type="Float32" format="ascii">
0.200343
0.200374
0.198888
0.199363
0.196932
0.198543
0.194618
0.198803
0.19174
0.202162
0.186773
0.213322
0.173535
0.236959
0.140207
0.251522
0.109259
0.216706
0.133297
0.174702
0.162509
0.169966
0.171091
0.173425
0.174054
0.174633
0.174492
0.174245
0.173676
0.173056
0.172304
0.171575
0.17081
0.170122
0.169441
0.168862
0.168302
0.167845
0.167406
0.167059
0.166726
0.166471
0.166226
0.166048
0.165876
0.165763
0.165654
0.165599
0.165546
0.165545
0.165546
0.165599
0.165654
0.165763
0.165876
0.166048
0.166226
0.166471
0.166725
0.167059
0.167406
0.167844
0.168301
0.16886
0.169437
0.170116
0.1708
0.171561
0.172283
0.173027
0.173635
0.174193
0.174421
0.17455
0.173944
0.173306
0.17095
0.169822
0.162457
0.174387
0.133743
0.215865
0.109906
0.250538
0.140395
0.236266
0.173376
0.212841
0.186484
0.201749
0.1914
0.198404
0.19425
0.198144
0.196547
0.198961
0.198491
0.19997
0.199941
0.200675
</DataArray>
<DataArray Name="hu" type="Float32" format="ascii">
-0.159188
-0.159254
-0.156002
-0.15703
-0.151749
-0.155223
-0.146775
-0.155793
-0.140745
-0.163375
-0.130905
-0.189804
-0.106638
-0.249351
-0.0511885
-0.283232
-0.00567243
-0.193198
-0.0375117
-0.102065
-0.0783294
-0.0876364
-0.086787
-0.0879431
-0.0860841
-0.0845913
-0.0816218
-0.0790294
-0.0756879
-0.0726809
-0.0692747
-0.0660913
-0.0626701
-0.0593636
-0.0558954
-0.0524678
-0.0489205
-0.0453747
-0.0417385
-0.0380887
-0.0343722
-0.0306403
-0.0268613
-0.0230706
-0.0192485
-0.0154195
-0.0115716
-0.00772075
-0.00386067
0
0.00386067
0.00772075
0.0115716
0.0154195
0.0192485
0.0230706
0.0268613
0.0306404
0.0343724
0.0380891
0.041739
0.0453756
0.0489221
0.0524702
0.0558993
0.0593694
0.062679
0.0661037
0.069293
0.0727051
0.0757223
0.0790723
0.0816818
0.0846624
0.0861853
0.0880601
0.0869741
0.0878272
0.0788192
0.102048
0.0388145
0.192151
0.00712174
0.281703
0.0521027
0.248581
0.107107
0.189667
0.131215
0.163465
0.141006
0.155958
0.147019
0.15542
0.151987
0.157244
0.156238
0.159482
0.159426
0.161043
</DataArray>
</CellData>
</Piece>
</RectilinearGrid>
</VTKFile>
