<?xml version="1.0"?>
<VTKFile type="RectilinearGrid">
<RectilinearGrid WholeExtent="0 100 0 0 0 0">
<Piece Extent="0 100 0 0 0 0">
<Coordinates>
<DataArray type="Float32" format="ascii">
0
1
2
3
4
5
6
7
8
9
10
11
12
13
14
15
16
17
18
19
20
21
22
23
24
25
26
27
28
29
30
31
32
33
34
35
36
37
38
39
40
41
42
43
44
45
46
47
48
49
50
51
52
53
54
55
56
57
58
59
60
61
62
63
64
65
66
67
68
69
70
71
72
73
74
75
76
77
78
79
80
81
82
83
84
85
86
87
88
89
90
91
92
93
94
95
96
97
98
99
100
</DataArray>
<DataArray type="Float32" format="ascii">
0
</DataArray>
<DataArray type="Float32" format="ascii">
0
</DataArray>
</Coordinates>
<CellData>
<DataArray Name="h" type="Float32" format="ascii">
0.158287
0.155595
0.158494
0.150149
0.160136
0.141527
0.161932
0.13429
0.161448
0.134448
0.157288
0.138029
0.15095
0.139734
0.14522
0.139431
0.14107
0.138082
0.138014
0.136225
0.135488
0.134179
0.133235
0.132142
0.131191
0.13024
0.129372
0.128558
0.127818
0.127149
0.126555
0.126035
0.125585
0.125202
0.124881
0.124616
0.1244
0.124226
0.124088
0.12398
0.123896
0.123832
0.123783
0.123746
0.123718
0.123697
0.123681
0.123669
0.12366
0.123654
0.12365
0.123649
0.123651
0.123656
0.123667
0.123684
0.12371
0.123748
0.1238
0.123872
0.123967
0.124092
0.124252
0.124455
0.124706
0.125012
0.125379
0.125814
0.126319
0.126898
0.12755
0.128276
0.129074
0.129932
0.130862
0.131816
0.13287
0.133852
0.135065
0.135938
0.137476
0.137922
0.140336
0.139528
0.144505
0.140316
0.152211
0.137757
0.154107
0.135081
0.14623
0.309211
-0.357125
0.382462
-0.75054
-3.98968
7.32213
-6.62063
4.97522
0.123143
</DataArray>
<DataArray Name="hu" type="Float32" format="ascii">
-0.0772873
-0.0757296
-0.0732362
-0.0759759
-0.0673073
-0.0769737
-0.0582346
-0.0735747
-0.049396
-0.066133
-0.0467491
-0.0597731
-0.0481267
-0.0550648
-0.0486545
-0.0510059
-0.0473693
-0.0474027
-0.0451023
-0.0442083
-0.042494
-0.0412754
-0.0397929
-0.038467
-0.0370583
-0.035685
-0.0342763
-0.032859
-0.0314136
-0.0299436
-0.0284455
-0.0269199
-0.0253695
-0.0237972
-0.0222085
-0.0206089
-0.0190055
-0.0174051
-0.0158147
-0.0142409
-0.0126894
-0.0111648
-0.00967045
-0.00820791
-0.00677703
-0.00537589
-0.00400083
-0.00264666
-0.00130692
2.57131e-05
0.00135906
0.0027008
0.00405825
0.00543776
0.00684443
0.00828176
0.00975161
0.0112539
0.012787
0.0143475
0.0159308
0.0175309
0.0191413
0.0207548
0.0223648
0.0239639
0.0255468
0.0271078
0.028644
0.0301522
0.031633
0.0330871
0.0345158
0.0359295
0.0373179
0.0387216
0.040077
0.0415257
0.0428207
0.0444225
0.0455206
0.0475198
0.0479671
0.050958
0.0492769
0.0545167
0.0464617
0.0573193
0.0372464
0.0412988
-0.0579754
-0.295244
0.177413
-1.22397
0.309522
-0.494994
-4.67645
5.10105
1.77447
0.126045
</DataArray>
</CellData>
</Piece>
</RectilinearGrid>
</VTKFile>
