<?xml version="1.0"?>
<VTKFile type="RectilinearGrid">
<RectilinearGrid WholeExtent="0 100 0 0 0 0">
<Piece Extent="0 100 0 0 0 0">
<Coordinates>
<DataArray type="Float32" format="ascii">
0
10
20
30
40
50
60
70
80
90
100
110
120
130
140
150
160
170
180
190
200
210
220
230
240
250
260
270
280
290
300
310
320
330
340
350
360
370
380
390
400
410
420
430
440
450
460
470
480
490
500
510
520
530
540
550
560
570
580
590
600
610
620
630
640
650
660
670
680
690
700
710
720
730
740
750
760
770
780
790
800
810
820
830
840
850
860
870
880
890
900
910
920
930
940
950
960
970
980
990
1000
</DataArray>
<DataArray type="Float32" format="ascii">
0
</DataArray>
<DataArray type="Float32" format="ascii">
0
</DataArray>
</Coordinates>
<CellData>
<DataArray Name="h" type="Float32" format="ascii">
15
15
15
15
15
15
15
15
15
15
15
15
15
15
15
15
15
15
15
15
15
15
15
15
15
15
15
15
15
15
15
15
15
15
15
15
15
15
15
15
15
15
15
14.9609
14.8242
14.5508
14.1406
13.6279
13.064
12.5
11.9763
11.5181
11.1362
10.8308
10.5947
10.4177
10.2883
10.1959
10.1312
10.0867
10.0566
10.0366
10.0234
10.0148
10.0093
10.0058
10.0036
10.0022
10.0013
10.0008
10.0005
10.0003
10.0002
10.0001
10.0001
10
10
10
10
10
10
10
10
10
10
10
10
10
10
10
10
10
10
10
10
10
10
10
10
10
</DataArray>
<DataArray Name="hu" type="Float32" format="ascii">
0
0
0
0
0
0
0
0
0
0
0
0
0
0
0
0
0
0
0
0
0
0
0
0
0
0
0
0
0
0
0
0
0
0
0
0
0
0
0
0
0
0
0
-2.87042e-15
-1.27605e-14
-2.92961e-14
-4.78918e-14
-6.32824e-14
-7.21916e-14
-7.39548e-14
-6.97965e-14
-6.17616e-14
-5.1888e-14
-4.17709e-14
-3.24447e-14
-2.44445e-14
-1.79386e-14
-1.28648e-14
-9.04039e-15
-6.23886e-15
-4.23605e-15
-2.83423e-15
-1.87116e-15
-1.22039e-15
-7.87104e-16
-5.02465e-16
-3.17735e-16
-1.99165e-16
-1.23823e-16
-7.63979e-17
-4.68078e-17
-2.84906e-17
-1.72332e-17
-1.03576e-17
-6.18894e-18
-3.68362e-18
-2.18543e-18
-1.28878e-18
-7.54462e-19
-4.37553e-19
-2.55223e-19
-1.48522e-19
-8.32633e-20
-4.6581e-20
-2.60062e-20
-1.44903e-20
-8.05808e-21
-4.47265e-21
-2.47799e-21
-1.37044e-21
-7.56602e-22
-4.17009e-22
-2.29465e-22
-1.26067e-22
-6.91547e-23
-3.78789e-23
-2.07183e-23
-1.13203e-23
-6.21238e-24
-3.65843e-24
</DataArray>
</CellData>
</Piece>
</RectilinearGrid>
</VTKFile>
