<?xml version="1.0"?>
<VTKFile type="RectilinearGrid">
<RectilinearGrid WholeExtent="0 100 0 0 0 0">
<Piece Extent="0 100 0 0 0 0">
<Coordinates>
<DataArray type="Float32" format="ascii">
0
10
20
30
40
50
60
70
80
90
100
110
120
130
140
150
160
170
180
190
200
210
220
230
240
250
260
270
280
290
300
310
320
330
340
350
360
370
380
390
400
410
420
430
440
450
460
470
480
490
500
510
520
530
540
550
560
570
580
590
600
610
620
630
640
650
660
670
680
690
700
710
720
730
740
750
760
770
780
790
800
810
820
830
840
850
860
870
880
890
900
910
920
930
940
950
960
970
980
990
1000
</DataArray>
<DataArray type="Float32" format="ascii">
0
</DataArray>
<DataArray type="Float32" format="ascii">
0
</DataArray>
</Coordinates>
<CellData>
<DataArray Name="h" type="Float32" format="ascii">
15
15
15
15
15
15
15
15
15
15
15
15
15
15
15
15
15
15
15
15
15
15
15
15
15
15
15
15
15
15
15
15
15
15
15
15
15
15
15
15
15
15
14.9805
14.9023
14.7266
14.4336
14.0308
13.5474
13.0237
12.5
12.009
11.5726
11.2017
10.8982
10.6579
10.4731
10.3345
10.2328
10.1598
10.1082
10.0724
10.0479
10.0314
10.0203
10.0131
10.0083
10.0053
10.0033
10.0021
10.0013
10.0008
10.0005
10.0003
10.0002
10.0001
10.0001
10
10
10
10
10
10
10
10
10
10
10
10
10
10
10
10
10
10
10
10
10
10
10
10
</DataArray>
<DataArray Name="hu" type="Float32" format="ascii">
0
0
0
0
0
0
0
0
0
0
0
0
0
0
0
0
0
0
0
0
0
0
0
0
0
0
0
0
0
0
0
0
0
0
0
0
0
0
0
0
0
0
-1.65013e-15
-8.16804e-15
-2.09548e-14
-3.80593e-14
-5.54463e-14
-6.91976e-14
-7.6988e-14
-7.83935e-14
-7.44083e-14
-6.67136e-14
-5.70631e-14
-4.6915e-14
-3.72916e-14
-2.87902e-14
-2.1667e-14
-1.59428e-14
-1.14974e-14
-8.14312e-15
-5.67396e-15
-3.89517e-15
-2.63795e-15
-1.76436e-15
-1.16658e-15
-7.63184e-16
-4.94383e-16
-3.17331e-16
-2.01947e-16
-1.27498e-16
-7.98965e-17
-4.97176e-17
-3.07311e-17
-1.88736e-17
-1.15243e-17
-7.00224e-18
-4.23577e-18
-2.54653e-18
-1.5206e-18
-9.06194e-19
-5.36498e-19
-3.16736e-19
-1.86229e-19
-1.06117e-19
-6.03038e-20
-3.4181e-20
-1.93268e-20
-1.09024e-20
-6.13642e-21
-3.44651e-21
-1.93176e-21
-1.08061e-21
-6.0334e-22
-3.36247e-22
-1.87063e-22
-1.03891e-22
-5.76055e-23
-3.19089e-23
-1.77837e-23
-1.07211e-23
</DataArray>
</CellData>
</Piece>
</RectilinearGrid>
</VTKFile>
