<?xml version="1.0"?>
<VTKFile type="RectilinearGrid">
<RectilinearGrid WholeExtent="0 100 0 0 0 0">
<Piece Extent="0 100 0 0 0 0">
<Coordinates>
<DataArray type="Float32" format="ascii">
0
1
2
3
4
5
6
7
8
9
10
11
12
13
14
15
16
17
18
19
20
21
22
23
24
25
26
27
28
29
30
31
32
33
34
35
36
37
38
39
40
41
42
43
44
45
46
47
48
49
50
51
52
53
54
55
56
57
58
59
60
61
62
63
64
65
66
67
68
69
70
71
72
73
74
75
76
77
78
79
80
81
82
83
84
85
86
87
88
89
90
91
92
93
94
95
96
97
98
99
100
</DataArray>
<DataArray type="Float32" format="ascii">
0
</DataArray>
<DataArray type="Float32" format="ascii">
0
</DataArray>
</Coordinates>
<CellData>
<DataArray Name="h" type="Float32" format="ascii">
0.196577
0.208107
0.195072
0.245503
0.157238
0.210208
0.171181
0.174227
0.168181
0.164904
0.163016
0.162365
0.162604
0.163196
0.163719
0.163968
0.163881
0.163557
0.163079
0.162561
0.162046
0.161581
0.161162
0.160788
0.160435
0.160088
0.159724
0.15933
0.158895
0.158415
0.157889
0.157322
0.156721
0.156095
0.155457
0.15482
0.154197
0.153599
0.153038
0.15252
0.152052
0.151637
0.151275
0.150967
0.150711
0.150505
0.150348
0.150237
0.150171
0.150149
0.150171
0.150237
0.150348
0.150505
0.150711
0.150966
0.151274
0.151635
0.152049
0.152515
0.15303
0.153589
0.154182
0.1548
0.155431
0.15606
0.156676
0.157265
0.157818
0.158328
0.15879
0.159206
0.15958
0.159923
0.160248
0.160579
0.160931
0.16133
0.161775
0.162272
0.162774
0.163241
0.163557
0.163647
0.163409
0.162913
0.162353
0.162169
0.162857
0.164821
0.168184
0.174095
0.173273
0.206506
0.160716
0.241739
0.194823
0.207406
0.196125
0.197382
</DataArray>
<DataArray Name="hu" type="Float32" format="ascii">
-0.151014
-0.176749
-0.148021
-0.269623
-0.0741556
-0.183317
-0.101212
-0.108019
-0.0966495
-0.0912969
-0.0882561
-0.0876579
-0.0885911
-0.0901301
-0.0914493
-0.0920536
-0.0918151
-0.0907862
-0.0891391
-0.0870121
-0.0845429
-0.0818168
-0.0789155
-0.0758907
-0.072794
-0.0696598
-0.0665206
-0.0633977
-0.0603084
-0.0572625
-0.0542661
-0.05132
-0.0484223
-0.0455677
-0.0427485
-0.0399553
-0.0371779
-0.0344063
-0.0316311
-0.0288451
-0.0260426
-0.0232202
-0.0203765
-0.0175114
-0.0146264
-0.0117237
-0.00880617
-0.00587728
-0.00294065
4.84337e-08
0.00294076
0.00587744
0.00880642
0.0117241
0.0146271
0.0175125
0.0203781
0.0232226
0.0260461
0.0288502
0.0316384
0.0344164
0.0371918
0.039974
0.0427731
0.0455996
0.0484628
0.0513704
0.0543277
0.0573364
0.0603955
0.0634983
0.0666352
0.069788
0.0729356
0.0760451
0.0790821
0.0819952
0.0847331
0.0872145
0.0893554
0.0910196
0.0920727
0.0923446
0.0917911
0.0905373
0.0890883
0.0882489
0.0889702
0.0921146
0.097751
0.108768
0.106415
0.176122
0.0816402
0.261119
0.148564
0.176303
0.151129
0.153848
</DataArray>
</CellData>
</Piece>
</RectilinearGrid>
</VTKFile>
