<?xml version="1.0"?>
<VTKFile type="RectilinearGrid">
<RectilinearGrid WholeExtent="0 100 0 0 0 0">
<Piece Extent="0 100 0 0 0 0">
<Coordinates>
<DataArray type="Float32" format="ascii">
0
1
2
3
4
5
6
7
8
9
10
11
12
13
14
15
16
17
18
19
20
21
22
23
24
25
26
27
28
29
30
31
32
33
34
35
36
37
38
39
40
41
42
43
44
45
46
47
48
49
50
51
52
53
54
55
56
57
58
59
60
61
62
63
64
65
66
67
68
69
70
71
72
73
74
75
76
77
78
79
80
81
82
83
84
85
86
87
88
89
90
91
92
93
94
95
96
97
98
99
100
</DataArray>
<DataArray type="Float32" format="ascii">
0
</DataArray>
<DataArray type="Float32" format="ascii">
0
</DataArray>
</Coordinates>
<CellData>
<DataArray Name="h" type="Float32" format="ascii">
0.118889
0.121515
0.124821
0.12864
0.132974
0.137825
0.14316
0.148906
0.154943
0.161118
0.167262
0.173211
0.178832
0.184033
0.188766
0.193022
0.196818
0.200191
0.203181
0.205842
0.208201
0.210331
0.212205
0.21398
0.215433
0.217055
0.218042
0.219758
0.220142
0.222203
0.221851
0.224404
0.223306
0.22631
0.224635
0.227875
0.225898
0.229113
0.227073
0.230091
0.228093
0.230876
0.228902
0.231512
0.229481
0.231992
0.229853
0.232288
0.230038
0.232387
0.230038
0.232288
0.229853
0.231992
0.229481
0.231512
0.228902
0.230876
0.228093
0.230091
0.227073
0.229113
0.225898
0.227875
0.224635
0.22631
0.223306
0.224404
0.221851
0.222203
0.220142
0.219758
0.218042
0.217055
0.215433
0.213979
0.212204
0.210329
0.208197
0.205833
0.203166
0.200166
0.196778
0.192962
0.188681
0.183918
0.178685
0.173031
0.167051
0.160881
0.154686
0.148636
0.142883
0.137545
0.132694
0.128361
0.124542
0.121212
0.118351
0.116097
</DataArray>
<DataArray Name="hu" type="Float32" format="ascii">
-0.0174858
-0.0207748
-0.0250502
-0.0301689
-0.0362077
-0.0432427
-0.0513009
-0.0603291
-0.0701726
-0.0805721
-0.0911865
-0.101638
-0.111569
-0.120682
-0.128771
-0.135722
-0.141493
-0.146107
-0.149607
-0.152081
-0.153576
-0.154234
-0.154
-0.15321
-0.151399
-0.149612
-0.146179
-0.143947
-0.138698
-0.136561
-0.129349
-0.127606
-0.118582
-0.11713
-0.10681
-0.105204
-0.0942931
-0.0920291
-0.0811229
-0.0778977
-0.0673143
-0.0630854
-0.0529152
-0.0477918
-0.0380518
-0.0321224
-0.0229085
-0.0161508
-0.00764559
0
0.00764559
0.0161508
0.0229085
0.0321224
0.0380518
0.0477918
0.0529152
0.0630854
0.0673143
0.0778977
0.0811229
0.0920291
0.0942931
0.105204
0.10681
0.11713
0.118582
0.127606
0.129349
0.136561
0.138698
0.143947
0.146179
0.149612
0.151399
0.15321
0.154
0.154235
0.153579
0.152086
0.149617
0.146124
0.141521
0.135764
0.128834
0.120769
0.111685
0.101786
0.0913664
0.0807826
0.0704098
0.0605876
0.0515749
0.0435268
0.0364976
0.0304611
0.0253393
0.0210303
0.0174482
0.0147064
</DataArray>
</CellData>
</Piece>
</RectilinearGrid>
</VTKFile>
