<?xml version="1.0"?>
<VTKFile type="RectilinearGrid">
<RectilinearGrid WholeExtent="0 100 0 0 0 0">
<Piece Extent="0 100 0 0 0 0">
<Coordinates>
<DataArray type="Float32" format="ascii">
0
1
2
3
4
5
6
7
8
9
10
11
12
13
14
15
16
17
18
19
20
21
22
23
24
25
26
27
28
29
30
31
32
33
34
35
36
37
38
39
40
41
42
43
44
45
46
47
48
49
50
51
52
53
54
55
56
57
58
59
60
61
62
63
64
65
66
67
68
69
70
71
72
73
74
75
76
77
78
79
80
81
82
83
84
85
86
87
88
89
90
91
92
93
94
95
96
97
98
99
100
</DataArray>
<DataArray type="Float32" format="ascii">
0
</DataArray>
<DataArray type="Float32" format="ascii">
0
</DataArray>
</Coordinates>
<CellData>
<DataArray Name="h" type="Float32" format="ascii">
0.16267
0.15934
0.164081
0.152565
0.166952
0.145365
0.168229
0.141565
0.165226
0.142046
0.159074
0.143902
0.152842
0.144639
0.148051
0.143869
0.144493
0.142165
0.14162
0.140055
0.139108
0.137867
0.136847
0.135789
0.134838
0.133936
0.133118
0.132376
0.131713
0.131129
0.130616
0.130174
0.12979
0.129459
0.129172
0.128921
0.128698
0.128496
0.12831
0.128137
0.127973
0.127818
0.127673
0.127538
0.127416
0.127311
0.127224
0.127159
0.127118
0.127102
0.127112
0.127146
0.127204
0.127284
0.127382
0.127495
0.12762
0.127756
0.1279
0.128053
0.128215
0.128388
0.128577
0.128787
0.129024
0.129297
0.129612
0.12998
0.130407
0.130904
0.131471
0.132119
0.132844
0.133649
0.134531
0.135476
0.136505
0.137541
0.138721
0.139744
0.141149
0.14194
0.143844
0.143881
0.147075
0.145049
0.151628
0.144316
0.158964
0.140306
0.16957
0.133973
0.179248
0.131913
0.180626
0.140289
0.173612
0.153469
0.16621
0.162774
</DataArray>
<DataArray Name="hu" type="Float32" format="ascii">
-0.0843894
-0.083581
-0.0786951
-0.0830958
-0.071063
-0.0829442
-0.0640275
-0.0802603
-0.0602193
-0.0746
-0.0592251
-0.0679923
-0.0585667
-0.0621773
-0.056924
-0.0575274
-0.0544444
-0.0536831
-0.0515599
-0.0502681
-0.0485227
-0.0470425
-0.0454193
-0.04386
-0.042247
-0.0406272
-0.0389719
-0.0372858
-0.0355657
-0.0338109
-0.0320255
-0.0302119
-0.0283776
-0.0265284
-0.0246731
-0.0228196
-0.0209766
-0.0191523
-0.017354
-0.0155881
-0.0138596
-0.012172
-0.0105271
-0.00892483
-0.00736329
-0.00583888
-0.00434624
-0.00287875
-0.00142836
1.34996e-05
0.00145607
0.00290829
0.00437896
0.00587583
0.00740568
0.00897353
0.0105832
0.012236
0.0139324
0.01567
0.0174456
0.0192538
0.0210884
0.0229416
0.0248057
0.0266716
0.0285316
0.0303765
0.0322009
0.0339967
0.0357625
0.0374923
0.0391894
0.0408524
0.0424851
0.0440996
0.0456793
0.0472872
0.0488133
0.0504954
0.051911
0.0538371
0.0549302
0.0574942
0.05766
0.0618401
0.059484
0.0676579
0.0592114
0.0757528
0.0564585
0.0853131
0.0550728
0.0923206
0.0609808
0.092354
0.0724411
0.0882349
0.0823701
0.08676
</DataArray>
</CellData>
</Piece>
</RectilinearGrid>
</VTKFile>
